1008 
28   

1    
  0.0094623558548220   0.0000000000000000   0.0032347830957757
  -0.5935216025   -0.0079869117   -0.0545750451
  -0.0000020142   -0.0000000044    0.0003623420
   0.0000000016   -0.0000000044    0.0003622392
   0.0000000016   -0.0000000044    0.0003622392
   0.0000000016   -0.0000000044    0.0003622392
  -0.0000019927   -0.0000000044    0.0003623397
  -0.0000002773    0.0000009907    0.0003623403
  -0.0000002761   -0.0000010031    0.0003623414
   0.0000000016   -0.0000000044    0.0003622392
   0.0000000016   -0.0000000044    0.0003622392
   0.0000000016   -0.0000000044    0.0003622392
   0.0000000016   -0.0000000044    0.0003622392
   0.0000000016   -0.0000000044    0.0003622392
   0.0000000016   -0.0000000044    0.0003622392
   0.0000000016   -0.0000000044    0.0003622392
   0.0000000016   -0.0000000044    0.0003622392
   0.0000000016   -0.0000000044    0.0003622392
   0.0000000016   -0.0000000044    0.0003622392
   0.0000000016   -0.0000000044    0.0003622392
   0.0000000016   -0.0000000044    0.0003622392
   0.0000000016   -0.0000000044    0.0003622392
   0.0000000016   -0.0000000044    0.0003622392
   0.0000000016   -0.0000000044    0.0003622392
   0.0000000016   -0.0000000044    0.0003622392
   0.0000000016   -0.0000000044    0.0003622392
   0.0000000016   -0.0000000044    0.0003622392
   0.0000000016   -0.0000000044    0.0003622392
   0.0000000016   -0.0000000044    0.0003622392
   0.0000000016   -0.0000000044    0.0003622392
   0.0000000016   -0.0000000044    0.0003622392
  -0.0000002761    0.0000009943    0.0003623414
   0.0000000016   -0.0000000044    0.0003622392
   0.0000000016   -0.0000000044    0.0003622392
   0.0000000016   -0.0000000044    0.0003622392
   0.0000000016   -0.0000000044    0.0003622392
  -0.0000002773   -0.0000009994    0.0003623403
   0.0001116504    0.0007301272    0.0003827727
   0.0001217331    0.0007307493    0.0003821669
   0.0001217331    0.0007307493    0.0003821669
   0.0001217331    0.0007307493    0.0003821669
   0.0001211531    0.0007307708    0.0003821852
   0.2903345666   -0.0449845099    0.0256988429
   0.0001218701    0.0007297921    0.0003823169
   0.0001217331    0.0007307493    0.0003821669
   0.0001217331    0.0007307493    0.0003821669
   0.0001217331    0.0007307493    0.0003821669
   0.0001217331    0.0007307493    0.0003821669
   0.0001214812    0.0007311870    0.0003821986
   0.0001217331    0.0007307493    0.0003821669
   0.0001217331    0.0007307493    0.0003821669
   0.0001217331    0.0007307493    0.0003821669
   0.0001217331    0.0007307493    0.0003821669
   0.0001217331    0.0007307493    0.0003821669
   0.0001217331    0.0007307493    0.0003821669
   0.0001217331    0.0007307493    0.0003821669
   0.0001217331    0.0007307493    0.0003821669
   0.0001217331    0.0007307493    0.0003821669
   0.0001217331    0.0007307493    0.0003821669
   0.0001217331    0.0007307493    0.0003821669
   0.0001217331    0.0007307493    0.0003821669
   0.0001217331    0.0007307493    0.0003821669
   0.0001217331    0.0007307493    0.0003821669
   0.0001217331    0.0007307493    0.0003821669
   0.0001217331    0.0007307493    0.0003821669
   0.0001217331    0.0007307493    0.0003821669
   0.0001217331    0.0007307493    0.0003821669
   0.0001217279    0.0007307526    0.0003821669
   0.0001217331    0.0007307493    0.0003821669
   0.0001217331    0.0007307493    0.0003821669
   0.0001217331    0.0007307493    0.0003821669
   0.0001213776    0.0007301662    0.0003822180
   0.0001219104    0.0007326575    0.0003824536
  -0.0017264983    0.0006974410    0.0004093335
  -0.0017283917    0.0007000090    0.0004085577
  -0.0017282650    0.0007000975    0.0004085544
  -0.0017282650    0.0007000975    0.0004085544
  -0.0017282650    0.0007000975    0.0004085544
  -0.0017287213    0.0007005877    0.0004085919
  -0.0017282650    0.0007000975    0.0004085544
  -0.0017282650    0.0007000975    0.0004085544
  -0.0017282650    0.0007000975    0.0004085544
  -0.0017282650    0.0007000975    0.0004085544
  -0.0017282650    0.0007000975    0.0004085544
  -0.0017282650    0.0007000975    0.0004085544
  -0.0017282650    0.0007000975    0.0004085544
  -0.0017282650    0.0007000975    0.0004085544
  -0.0017282650    0.0007000975    0.0004085544
  -0.0017282650    0.0007000975    0.0004085544
  -0.0017282650    0.0007000975    0.0004085544
  -0.0017282650    0.0007000975    0.0004085544
  -0.0017282650    0.0007000975    0.0004085544
  -0.0017282650    0.0007000975    0.0004085544
  -0.0017282650    0.0007000975    0.0004085544
  -0.0017282650    0.0007000975    0.0004085544
  -0.0017282650    0.0007000975    0.0004085544
  -0.0017282650    0.0007000975    0.0004085544
  -0.0017282743    0.0007001056    0.0004085545
  -0.0017282650    0.0007000975    0.0004085544
  -0.0017282650    0.0007000975    0.0004085544
  -0.0017282650    0.0007000975    0.0004085544
  -0.0017283803    0.0006999422    0.0004085610
  -0.0017280141    0.0007004214    0.0004086562
  -0.0017302789    0.0007013427    0.0004100790
  -0.0017282650    0.0007000975    0.0004085544
  -0.0017282650    0.0007000975    0.0004085544
  -0.0017282650    0.0007000975    0.0004085544
  -0.0017284453    0.0007000802    0.0004085575
   0.0155570434   -0.0098808540   -0.0029101728
   0.0018785128   -0.0001921218    0.0004108033
   0.0018765463   -0.0001935175    0.0004102252
   0.0018768651   -0.0001932022    0.0004102064
   0.0018768651   -0.0001932022    0.0004102064
   0.0018768651   -0.0001932022    0.0004102064
   0.0018767059   -0.0001930746    0.0004102116
   0.0018768651   -0.0001932022    0.0004102064
   0.0018768651   -0.0001932022    0.0004102064
   0.0018768651   -0.0001932022    0.0004102064
   0.0018768651   -0.0001932022    0.0004102064
   0.0018768651   -0.0001932022    0.0004102064
   0.0018768651   -0.0001932022    0.0004102064
   0.0018768651   -0.0001932022    0.0004102064
   0.0018768651   -0.0001932022    0.0004102064
   0.0018768651   -0.0001932022    0.0004102064
   0.0018768651   -0.0001932022    0.0004102064
   0.0018768651   -0.0001932022    0.0004102064
   0.0018768651   -0.0001932022    0.0004102064
   0.0018768651   -0.0001932022    0.0004102064
   0.0018768651   -0.0001932022    0.0004102064
   0.0018768651   -0.0001932022    0.0004102064
   0.0018768651   -0.0001932022    0.0004102064
   0.0018768651   -0.0001932022    0.0004102064
   0.0018768651   -0.0001932022    0.0004102064
   0.0018767485   -0.0001930671    0.0004102118
   0.0018768651   -0.0001932022    0.0004102064
   0.0018768651   -0.0001932022    0.0004102064
   0.0018768651   -0.0001932022    0.0004102064
   0.0018768191   -0.0001932452    0.0004102073
   0.0018772826   -0.0001934554    0.0004103557
   0.0018770213   -0.0001933026    0.0011650136
   0.0018767799   -0.0001931971    0.0004102074
   0.0018768651   -0.0001932022    0.0004102064
   0.0018768651   -0.0001932022    0.0004102064
   0.0018768651   -0.0001932022    0.0004102064
   0.0018768737   -0.0001930701    0.0000355211
   0.0002614882   -0.0018445277    0.0004100707
   0.0002566988   -0.0018478880    0.0004086572
   0.0002578264   -0.0018467641    0.0004085545
   0.0002578264   -0.0018467641    0.0004085545
   0.0002578264   -0.0018467641    0.0004085545
   0.0002576838   -0.0018466868    0.0004085576
   0.0002578264   -0.0018467641    0.0004085545
   0.0002578259   -0.0018467671    0.0004085545
   0.0002578264   -0.0018467641    0.0004085545
   0.0002578264   -0.0018467641    0.0004085545
   0.0002578264   -0.0018467641    0.0004085545
   0.0002578264   -0.0018467641    0.0004085545
   0.0002578264   -0.0018467641    0.0004085545
   0.0002578264   -0.0018467641    0.0004085545
   0.0002578264   -0.0018467641    0.0004085545
   0.0002578264   -0.0018467641    0.0004085545
   0.0002578264   -0.0018467641    0.0004085545
   0.0002578264   -0.0018467641    0.0004085545
   0.0002578264   -0.0018467641    0.0004085545
   0.0002578264   -0.0018467641    0.0004085545
   0.0002578264   -0.0018467641    0.0004085545
   0.0002578264   -0.0018467641    0.0004085545
   0.0002578264   -0.0018467641    0.0004085545
   0.0002578264   -0.0018467641    0.0004085545
   0.0002577717   -0.0018466731    0.0004085577
   0.0002578264   -0.0018467641    0.0004085545
   0.0002578264   -0.0018467641    0.0004085545
   0.0002578264   -0.0018467641    0.0004085545
   0.0002578264   -0.0018467641    0.0004085545
   0.0002579013   -0.0018469489    0.0004085922
   0.0124863056   -0.0278739374   -0.0030749436
   0.0002575404   -0.0018467053    0.0004085613
   0.0002578264   -0.0018467641    0.0004085545
   0.0002578264   -0.0018467641    0.0004085545
   0.0002578264   -0.0018467641    0.0004085545
   0.0002472884   -0.0018511929    0.0004093206
  -0.0006955250   -0.0002630120    0.0003824548
  -0.0006937124   -0.0002599472    0.0003821669
  -0.0006937124   -0.0002599472    0.0003821669
  -0.0006937124   -0.0002599472    0.0003821669
  -0.0006937124   -0.0002599472    0.0003821669
  -0.0006954758   -0.0002545590    0.0003827601
  -0.0006937125   -0.0002599475    0.0003821669
  -0.0006937124   -0.0002599472    0.0003821669
  -0.0006937124   -0.0002599472    0.0003821669
  -0.0006937124   -0.0002599472    0.0003821669
  -0.0006937124   -0.0002599472    0.0003821669
  -0.0006937124   -0.0002599472    0.0003821669
  -0.0006937124   -0.0002599472    0.0003821669
  -0.0006937124   -0.0002599472    0.0003821669
  -0.0006937124   -0.0002599472    0.0003821669
  -0.0006937124   -0.0002599472    0.0003821669
  -0.0006937124   -0.0002599472    0.0003821669
  -0.0006937124   -0.0002599472    0.0003821669
  -0.0006937124   -0.0002599472    0.0003821669
  -0.0006937124   -0.0002599472    0.0003821669
  -0.0006937124   -0.0002599472    0.0003821669
  -0.0006937124   -0.0002599472    0.0003821669
  -0.0006937124   -0.0002599472    0.0003821669
  -0.0006937124   -0.0002599472    0.0003821669
  -0.0006937124   -0.0002599472    0.0003821669
  -0.0006937124   -0.0002599472    0.0003821669
  -0.0006937124   -0.0002599472    0.0003821669
  -0.0006937124   -0.0002599472    0.0003821669
  -0.0006937437   -0.0002602581    0.0003821987
  -0.0006937990   -0.0002596822    0.0003821856
  -0.0006947065   -0.0002597266    0.0003822189
  -0.0006937124   -0.0002599472    0.0003821669
  -0.0006937124   -0.0002599472    0.0003821669
  -0.0006937124   -0.0002599472    0.0003821669
  -0.0006964474   -0.0002606504    0.0003823144
   0.0739683505   -0.0810928725    0.0252051926
   0.0007531987    0.0001363295    0.0004060057
   0.0007516589    0.0001397037    0.0004044833
   0.0007516735    0.0001397088    0.0004044833
   0.0007516735    0.0001397088    0.0004044833
   0.0007516735    0.0001397088    0.0004044833
   0.0007457314    0.0001468049    0.0004052519
   0.0007516823    0.0001397190    0.0004044865
   0.0007516735    0.0001397088    0.0004044833
   0.0007516735    0.0001397088    0.0004044833
   0.0007516735    0.0001397088    0.0004044833
   0.0007516735    0.0001397088    0.0004044833
   0.0007516735    0.0001397088    0.0004044833
   0.0007516735    0.0001397088    0.0004044833
   0.0007516735    0.0001397088    0.0004044833
   0.0007516735    0.0001397088    0.0004044833
   0.0007516735    0.0001397088    0.0004044833
   0.0007516735    0.0001397088    0.0004044833
   0.0007516735    0.0001397088    0.0004044833
   0.0007516735    0.0001397088    0.0004044833
   0.0007516735    0.0001397088    0.0004044833
   0.0007516735    0.0001397088    0.0004044833
   0.0007516735    0.0001397088    0.0004044833
   0.0007516735    0.0001397088    0.0004044833
   0.0007516735    0.0001397088    0.0004044833
   0.0007516735    0.0001397088    0.0004044833
   0.0007516735    0.0001397088    0.0004044833
   0.0007516735    0.0001397088    0.0004044833
   0.0007516735    0.0001397088    0.0004044833
   0.0007516490    0.0001396357    0.0004044864
   0.0007516592    0.0001398063    0.0004044900
   0.0007499777    0.0001405067    0.0004045861
   0.0007516735    0.0001397088    0.0004044833
   0.0007516735    0.0001397088    0.0004044833
   0.0007516735    0.0001397088    0.0004044833
   0.0007508995    0.0001394027    0.0004045206
   0.0047829513    0.0186905023   -0.0029920606
  -0.0011056359   -0.0015288843    0.0000303262
  -0.0011059584   -0.0015289099    0.0004102118
  -0.0011057475   -0.0015288098    0.0004102064
  -0.0011057475   -0.0015288098    0.0004102064
  -0.0011057475   -0.0015288098    0.0004102064
  -0.0011075851   -0.0015272607    0.0004103541
  -0.0011057483   -0.0015287927    0.0004102074
  -0.0011057475   -0.0015288098    0.0004102064
  -0.0011057475   -0.0015288098    0.0004102064
  -0.0011057475   -0.0015288098    0.0004102064
  -0.0011057475   -0.0015288098    0.0004102064
  -0.0011057475   -0.0015288098    0.0004102064
  -0.0011057475   -0.0015288098    0.0004102064
  -0.0011057475   -0.0015288098    0.0004102064
  -0.0011057475   -0.0015288098    0.0004102064
  -0.0011057475   -0.0015288098    0.0004102064
  -0.0011057475   -0.0015288098    0.0004102064
  -0.0011057475   -0.0015288098    0.0004102064
  -0.0011057475   -0.0015288098    0.0004102064
  -0.0011057475   -0.0015288098    0.0004102064
  -0.0011057475   -0.0015288098    0.0004102064
  -0.0011057475   -0.0015288098    0.0004102064
  -0.0011057475   -0.0015288098    0.0004102064
  -0.0011057475   -0.0015288098    0.0004102064
  -0.0011057475   -0.0015288098    0.0004102064
  -0.0011057475   -0.0015288098    0.0004102064
  -0.0011057475   -0.0015288098    0.0004102064
  -0.0011057475   -0.0015288098    0.0004102064
  -0.0011057711   -0.0015288497    0.0004102074
  -0.0011057128   -0.0015286995    0.0004102251
  -0.0011137679   -0.0015242887    0.0004108122
  -0.0011057475   -0.0015288098    0.0004102064
  -0.0011057475   -0.0015288098    0.0004102064
  -0.0011057475   -0.0015288098    0.0004102064
  -0.0011059832   -0.0015288742    0.0004102116
  -0.0011059120   -0.0015288949    0.0011642528
   0.0055474260   -0.0115973766   -0.0030210776
   0.0014696539    0.0011463606    0.0004085928
   0.0014704314    0.0011466687    0.0004085544
   0.0014704314    0.0011466687    0.0004085544
   0.0014704314    0.0011466687    0.0004085544
   0.0014687514    0.0011474578    0.0004086548
   0.0014704170    0.0011467661    0.0004085610
   0.0014704070    0.0011465953    0.0004085577
   0.0014704314    0.0011466687    0.0004085544
   0.0014704314    0.0011466687    0.0004085544
   0.0014704314    0.0011466687    0.0004085544
   0.0014704314    0.0011466687    0.0004085544
   0.0014704314    0.0011466687    0.0004085544
   0.0014704314    0.0011466687    0.0004085544
   0.0014704314    0.0011466687    0.0004085544
   0.0014704314    0.0011466687    0.0004085544
   0.0014704314    0.0011466687    0.0004085544
   0.0014704314    0.0011466687    0.0004085544
   0.0014704314    0.0011466687    0.0004085544
   0.0014704314    0.0011466687    0.0004085544
   0.0014704314    0.0011466687    0.0004085544
   0.0014704314    0.0011466687    0.0004085544
   0.0014704314    0.0011466687    0.0004085544
   0.0014704314    0.0011466687    0.0004085544
   0.0014704314    0.0011466687    0.0004085544
   0.0014704314    0.0011466687    0.0004085544
   0.0014704314    0.0011466687    0.0004085544
   0.0014704314    0.0011466687    0.0004085544
   0.0014704314    0.0011466687    0.0004085544
   0.0014704403    0.0011466787    0.0004085576
   0.0014644802    0.0011538091    0.0004093401
   0.0014704314    0.0011466687    0.0004085544
   0.0014704314    0.0011466687    0.0004085544
   0.0014704314    0.0011466687    0.0004085544
   0.0014704176    0.0011466639    0.0004085545
   0.0014717199    0.0011430399    0.0004100685
  -0.0007711024    0.0017221947    0.0011643166
  -0.0007734002    0.0017206954    0.0004103577
  -0.0007711119    0.0017220088    0.0004102064
  -0.0007711119    0.0017220088    0.0004102064
  -0.0007711119    0.0017220088    0.0004102064
  -0.0007716198    0.0017222114    0.0004102247
  -0.0007711269    0.0017220438    0.0004102073
  -0.0007711159    0.0017219391    0.0004102117
  -0.0007711119    0.0017220088    0.0004102064
  -0.0007711119    0.0017220088    0.0004102064
  -0.0007711119    0.0017220088    0.0004102064
  -0.0007711119    0.0017220088    0.0004102064
  -0.0007711119    0.0017220088    0.0004102064
  -0.0007711119    0.0017220088    0.0004102064
  -0.0007711119    0.0017220088    0.0004102064
  -0.0007711119    0.0017220088    0.0004102064
  -0.0007711119    0.0017220088    0.0004102064
  -0.0007711119    0.0017220088    0.0004102064
  -0.0007711119    0.0017220088    0.0004102064
  -0.0007711119    0.0017220088    0.0004102064
  -0.0007711119    0.0017220088    0.0004102064
  -0.0007711119    0.0017220088    0.0004102064
  -0.0007711119    0.0017220088    0.0004102064
  -0.0007711119    0.0017220088    0.0004102064
  -0.0007711119    0.0017220088    0.0004102064
  -0.0007711119    0.0017220088    0.0004102064
  -0.0007711119    0.0017220088    0.0004102064
  -0.0007711119    0.0017220088    0.0004102064
  -0.0007711119    0.0017220088    0.0004102064
  -0.0007710997    0.0017219799    0.0004102117
  -0.0007712313    0.0017219499    0.0000333310
  -0.0007711885    0.0017220353    0.0004102074
  -0.0007711119    0.0017220088    0.0004102064
  -0.0007711119    0.0017220088    0.0004102064
  -0.0007711119    0.0017220088    0.0004102064
  -0.0007772364    0.0017164660    0.0004107968
  -0.0002654455   -0.0007252933    0.0004052707
  -0.0002548430   -0.0007208241    0.0004044833
  -0.0002548430   -0.0007208241    0.0004044833
  -0.0002548430   -0.0007208241    0.0004044833
  -0.0002551258   -0.0007207660    0.0004044898
   0.0119361824    0.0070380692   -0.0029279947
  -0.0002547675   -0.0007210078    0.0004045212
  -0.0002548430   -0.0007208241    0.0004044833
  -0.0002548430   -0.0007208241    0.0004044833
  -0.0002548430   -0.0007208241    0.0004044833
  -0.0002548430   -0.0007208241    0.0004044833
  -0.0002548975   -0.0007207338    0.0004044864
  -0.0002548430   -0.0007208241    0.0004044833
  -0.0002548430   -0.0007208241    0.0004044833
  -0.0002548430   -0.0007208241    0.0004044833
  -0.0002548430   -0.0007208241    0.0004044833
  -0.0002548430   -0.0007208241    0.0004044833
  -0.0002548430   -0.0007208241    0.0004044833
  -0.0002548430   -0.0007208241    0.0004044833
  -0.0002548430   -0.0007208241    0.0004044833
  -0.0002548430   -0.0007208241    0.0004044833
  -0.0002548430   -0.0007208241    0.0004044833
  -0.0002548430   -0.0007208241    0.0004044833
  -0.0002548430   -0.0007208241    0.0004044833
  -0.0002548430   -0.0007208241    0.0004044833
  -0.0002548430   -0.0007208241    0.0004044833
  -0.0002548430   -0.0007208241    0.0004044833
  -0.0002548430   -0.0007208241    0.0004044833
  -0.0002548436   -0.0007208271    0.0004044833
  -0.0002548430   -0.0007208241    0.0004044833
  -0.0002549874   -0.0007207457    0.0004044865
  -0.0002548430   -0.0007208241    0.0004044833
  -0.0002548430   -0.0007208241    0.0004044833
  -0.0002548430   -0.0007208241    0.0004044833
  -0.0002559635   -0.0007219382    0.0004045838
  -0.0002511394   -0.0007186787    0.0004060037
  -0.0000000809   -0.0000000632    0.0000463505
  -0.0000000078    0.0000000017    0.0004242784
  -0.0000000006    0.0000000030    0.0004242784
  -0.0000000006    0.0000000030    0.0004242784
  -0.0000000071    0.0000000043    0.0004242784
   0.0000000960   -0.0000000330    0.0000500522
   0.0000000928    0.0000000037    0.0004243104
  -0.0000000038   -0.0000000005    0.0004242784
  -0.0000000006    0.0000000030    0.0004242784
  -0.0000000006    0.0000000030    0.0004242784
  -0.0000000006    0.0000000030    0.0004242784
  -0.0000000036    0.0000000064    0.0004242784
  -0.0000000006    0.0000000030    0.0004242784
  -0.0000000006    0.0000000030    0.0004242784
  -0.0000000006    0.0000000030    0.0004242784
  -0.0000000006    0.0000000030    0.0004242784
  -0.0000000006    0.0000000030    0.0004242784
  -0.0000000006    0.0000000030    0.0004242784
  -0.0000000006    0.0000000030    0.0004242784
  -0.0000000006    0.0000000030    0.0004242784
  -0.0000000006    0.0000000030    0.0004242784
  -0.0000000006    0.0000000030    0.0004242784
  -0.0000000006    0.0000000030    0.0004242784
  -0.0000000006    0.0000000030    0.0004242784
  -0.0000000006    0.0000000030    0.0004242784
  -0.0000000006    0.0000000030    0.0004242784
  -0.0000000006    0.0000000030    0.0004242784
  -0.0000000006    0.0000000030    0.0004242784
  -0.0000000014    0.0000000009    0.0004242784
  -0.0000000014    0.0000000052    0.0004242784
  -0.0000005851    0.0000003950    0.0004243108
  -0.0000000006    0.0000000030    0.0004242784
  -0.0000000006    0.0000000030    0.0004242784
  -0.0000000006    0.0000000030    0.0004242784
  -0.0000005825   -0.0000003863    0.0004243099
  -0.0000000180    0.0000001061    0.0000449213
   0.0176145229    0.0229869267   -0.0030970493
  -0.0004970135    0.0005810934    0.0004044865
  -0.0004968307    0.0005811109    0.0004044833
  -0.0004968307    0.0005811109    0.0004044833
  -0.0004968307    0.0005811109    0.0004044833
  -0.0004995818    0.0005824921    0.0004059952
  -0.0004965811    0.0005814381    0.0004045847
  -0.0004969466    0.0005809545    0.0004044900
  -0.0004968307    0.0005811109    0.0004044833
  -0.0004968307    0.0005811109    0.0004044833
  -0.0004968307    0.0005811109    0.0004044833
  -0.0004968396    0.0005811187    0.0004044833
  -0.0004968307    0.0005811109    0.0004044833
  -0.0004968307    0.0005811109    0.0004044833
  -0.0004968307    0.0005811109    0.0004044833
  -0.0004968307    0.0005811109    0.0004044833
  -0.0004968307    0.0005811109    0.0004044833
  -0.0004968307    0.0005811109    0.0004044833
  -0.0004968307    0.0005811109    0.0004044833
  -0.0004968307    0.0005811109    0.0004044833
  -0.0004968307    0.0005811109    0.0004044833
  -0.0004968307    0.0005811109    0.0004044833
  -0.0004968307    0.0005811109    0.0004044833
  -0.0004968307    0.0005811109    0.0004044833
  -0.0004968307    0.0005811109    0.0004044833
  -0.0004968307    0.0005811109    0.0004044833
  -0.0004968307    0.0005811109    0.0004044833
  -0.0004968307    0.0005811109    0.0004044833
  -0.0004968307    0.0005811109    0.0004044833
  -0.0004968307    0.0005811109    0.0004044833
  -0.0004972877    0.0005816034    0.0004045215
  -0.0004968307    0.0005811109    0.0004044833
  -0.0004968307    0.0005811109    0.0004044833
  -0.0004968307    0.0005811109    0.0004044833
  -0.0004969560    0.0005810236    0.0004044864
  -0.0004950794    0.0005784290    0.0004052581
   0.1614026802    0.1347010929    0.0250471561
   0.0005711872   -0.0004709234    0.0003821993
   0.0005719800   -0.0004707954    0.0003821669
   0.0005719800   -0.0004707954    0.0003821669
   0.0005719800   -0.0004707954    0.0003821669
   0.0005668902   -0.0004696571    0.0003824486
   0.0005720034   -0.0004704297    0.0003822182
   0.0005718559   -0.0004710821    0.0003821856
   0.0005719800   -0.0004707954    0.0003821669
   0.0005719800   -0.0004707954    0.0003821669
   0.0005719800   -0.0004707954    0.0003821669
   0.0005719800   -0.0004707954    0.0003821669
   0.0005719800   -0.0004707954    0.0003821669
   0.0005719800   -0.0004707954    0.0003821669
   0.0005719800   -0.0004707954    0.0003821669
   0.0005719800   -0.0004707954    0.0003821669
   0.0005719800   -0.0004707954    0.0003821669
   0.0005719800   -0.0004707954    0.0003821669
   0.0005719800   -0.0004707954    0.0003821669
   0.0005719800   -0.0004707954    0.0003821669
   0.0005719800   -0.0004707954    0.0003821669
   0.0005719800   -0.0004707954    0.0003821669
   0.0005719800   -0.0004707954    0.0003821669
   0.0005719800   -0.0004707954    0.0003821669
   0.0005719800   -0.0004707954    0.0003821669
   0.0005719800   -0.0004707954    0.0003821669
   0.0005719800   -0.0004707954    0.0003821669
   0.0005719800   -0.0004707954    0.0003821669
   0.0005719800   -0.0004707954    0.0003821669
   0.0005719800   -0.0004707954    0.0003821669
   0.0005708878   -0.0004691240    0.0003823176
   0.0005719800   -0.0004707954    0.0003821669
   0.0005719800   -0.0004707954    0.0003821669
   0.0005719800   -0.0004707954    0.0003821669
   0.0005719747   -0.0004707981    0.0003821669
   0.0005712855   -0.0004755709    0.0003827608
  -0.0000544850   -0.0000000025   -0.0000023382
  -0.0000004709   -0.0000000025   -0.0003618909
   0.0000000026   -0.0000000025   -0.0003622390
   0.0000000026   -0.0000000025   -0.0003622390
   0.0000000026   -0.0000000025   -0.0003622390
  -0.0000008161   -0.0000000025   -0.0003626875
  -0.0000001509    0.0000004622   -0.0003624802
   0.0000000036   -0.0000002015   -0.0003620793
   0.0000000026   -0.0000000025   -0.0003622390
   0.0000000026   -0.0000000025   -0.0003622390
   0.0000000026   -0.0000000025   -0.0003622390
   0.0000000026   -0.0000000025   -0.0003622390
   0.0000000026   -0.0000000025   -0.0003622390
   0.0000000026   -0.0000000025   -0.0003622390
   0.0000000026   -0.0000000025   -0.0003622390
   0.0000000026   -0.0000000025   -0.0003622390
   0.0000000026   -0.0000000025   -0.0003622390
   0.0000000026   -0.0000000025   -0.0003622390
   0.0000000026   -0.0000000025   -0.0003622390
   0.0000000026   -0.0000000025   -0.0003622390
   0.0000000026   -0.0000000025   -0.0003622390
   0.0000000026   -0.0000000025   -0.0003622390
   0.0000000026   -0.0000000025   -0.0003622390
   0.0000000026   -0.0000000025   -0.0003622390
   0.0000000026   -0.0000000025   -0.0003622390
   0.0000000026   -0.0000000025   -0.0003622390
   0.0000000026   -0.0000000025   -0.0003622390
   0.0000000026   -0.0000000025   -0.0003622390
   0.0000000026   -0.0000000025   -0.0003622390
   0.0000000026   -0.0000000025   -0.0003622390
   0.0000000036    0.0000001965   -0.0003620793
   0.0000000026   -0.0000000025   -0.0003622390
   0.0000000026   -0.0000000025   -0.0003622390
   0.0000000026   -0.0000000025   -0.0003622390
   0.0000000026   -0.0000000025   -0.0003622390
  -0.0000001509   -0.0000004672   -0.0003624802
  -0.0007069190    0.0002411844   -0.0003368980
  -0.0006940883    0.0002598702   -0.0003819365
  -0.0006937135    0.0002599535   -0.0003821671
  -0.0006937135    0.0002599535   -0.0003821671
  -0.0006937135    0.0002599535   -0.0003821671
  -0.0006946273    0.0002601909   -0.0003827156
  -0.0006937534    0.0002601319   -0.0003822433
  -0.0006937331    0.0002598858   -0.0003821285
  -0.0006937135    0.0002599535   -0.0003821671
  -0.0006937135    0.0002599535   -0.0003821671
  -0.0006937135    0.0002599535   -0.0003821671
  -0.0006937135    0.0002599535   -0.0003821671
  -0.0006937135    0.0002599535   -0.0003821671
  -0.0006937135    0.0002599535   -0.0003821671
  -0.0006937135    0.0002599535   -0.0003821671
  -0.0006937135    0.0002599535   -0.0003821671
  -0.0006937135    0.0002599535   -0.0003821671
  -0.0006937135    0.0002599535   -0.0003821671
  -0.0006937135    0.0002599535   -0.0003821671
  -0.0006937135    0.0002599535   -0.0003821671
  -0.0006937135    0.0002599535   -0.0003821671
  -0.0006937135    0.0002599535   -0.0003821671
  -0.0006937135    0.0002599535   -0.0003821671
  -0.0006937135    0.0002599535   -0.0003821671
  -0.0006937135    0.0002599535   -0.0003821671
  -0.0006937135    0.0002599535   -0.0003821671
  -0.0006937135    0.0002599535   -0.0003821671
  -0.0006937135    0.0002599535   -0.0003821671
  -0.0006937135    0.0002599535   -0.0003821671
  -0.0006937135    0.0002599535   -0.0003821671
  -0.0006938910    0.0002604602   -0.0003816766
  -0.0006937135    0.0002599535   -0.0003821671
  -0.0006937135    0.0002599535   -0.0003821671
  -0.0006937135    0.0002599535   -0.0003821671
  -0.0006937135    0.0002599535   -0.0003821671
  -0.0006942798    0.0002583769   -0.0003832591
   0.0007561310   -0.0001394674   -0.0004032894
   0.0007512909   -0.0001399131   -0.0004041619
   0.0007516746   -0.0001397132   -0.0004044831
   0.0007516746   -0.0001397132   -0.0004044831
   0.0007516746   -0.0001397132   -0.0004044831
   0.0007512795   -0.0001395631   -0.0004046813
   0.0007516645   -0.0001396886   -0.0004044930
   0.0007516726   -0.0001397310   -0.0004044741
   0.0007516746   -0.0001397132   -0.0004044831
   0.0007516746   -0.0001397132   -0.0004044831
   0.0007516746   -0.0001397132   -0.0004044831
   0.0007516746   -0.0001397132   -0.0004044831
   0.0007516746   -0.0001397132   -0.0004044831
   0.0007516746   -0.0001397132   -0.0004044831
   0.0007516746   -0.0001397132   -0.0004044831
   0.0007516746   -0.0001397132   -0.0004044831
   0.0007516746   -0.0001397132   -0.0004044831
   0.0007516746   -0.0001397132   -0.0004044831
   0.0007516746   -0.0001397132   -0.0004044831
   0.0007516746   -0.0001397132   -0.0004044831
   0.0007516746   -0.0001397132   -0.0004044831
   0.0007516746   -0.0001397132   -0.0004044831
   0.0007516746   -0.0001397132   -0.0004044831
   0.0007516746   -0.0001397132   -0.0004044831
   0.0007516746   -0.0001397132   -0.0004044831
   0.0007516746   -0.0001397132   -0.0004044831
   0.0007516746   -0.0001397132   -0.0004044831
   0.0007516746   -0.0001397132   -0.0004044831
   0.0007516746   -0.0001397132   -0.0004044831
   0.0007516754   -0.0001397223   -0.0004044861
   0.0007515680   -0.0001382821   -0.0004025850
   0.0007516746   -0.0001397132   -0.0004044831
   0.0007516746   -0.0001397132   -0.0004044831
   0.0007516746   -0.0001397132   -0.0004044831
   0.0007516746   -0.0001397132   -0.0004044831
   0.0007500656   -0.0001415939   -0.0004062763
   0.0000018720    0.0000021300   -0.0004255675
  -0.0000001923   -0.0000001316   -0.0004241495
   0.0000000021   -0.0000000009   -0.0004242787
   0.0000000021   -0.0000000009   -0.0004242787
   0.0000000021   -0.0000000009   -0.0004242787
  -0.0000002886    0.0000001849   -0.0004244362
   0.0000000021   -0.0000000009   -0.0004242787
   0.0000000021   -0.0000000009   -0.0004242787
   0.0000000021   -0.0000000009   -0.0004242787
   0.0000000021   -0.0000000009   -0.0004242787
   0.0000000021   -0.0000000009   -0.0004242787