<?xml version="1.0" encoding="ISO-8859-1"?>
<modeling>
 <generator>
  <i name="program" type="string">vasp</i>
  <i name="version" type="string">5.4.1</i>
 </generator>
 <calculation>
  <varray name="forces">
<v>-1.61660588138268e-06 3.56020836855819e-06 0.00036223863853329</v>
<v>6.27918030157639e-06 -7.50081898325566e-06 0.000362240524897551</v>
<v>1.59697211010723e-09 -4.38927827417501e-09 0.000362239246445339</v>
<v>1.59657909115651e-09 -4.3892913748067e-09 0.000362239246445272</v>
<v>1.59690027867754e-09 -4.3893271239881e-09 0.000362239246445311</v>
<v>1.70358712401654e-08 9.8548346403899e-10 0.000362239245528644</v>
<v>1.79449243220553e-06 -8.47965328842904e-07 0.000362239054623945</v>
<v>-0.00280047953661681 0.0140465693685771 0.00036511230313843</v>
<v>8.19405595364213e-07 3.18956477668463e-07 0.000362239319970822</v>
<v>1.59639852084222e-09 -4.38855636347105e-09 0.000362239246445399</v>
<v>1.59611760312421e-09 -4.38865400043034e-09 0.000362239246445419</v>
<v>1.59689427891956e-09 -4.38868353648276e-09 0.00036223924644535</v>
<v>1.59393365173344e-09 -4.38746661224343e-09 0.000362239246444979</v>
<v>1.66704882710182e-08 -1.07432175332743e-07 0.000362239239416114</v>
<v>2.74897409618636e-08 7.28643052134632e-08 0.000362239251715427</v>
<v>1.59624354515684e-09 -4.38821979776654e-09 0.000362239246445472</v>
<v>1.59654874965401e-09 -4.38848329753271e-09 0.000362239246445473</v>
<v>1.59598757300261e-09 -4.38827236560243e-09 0.000362239246445377</v>
<v>1.59473834138169e-09 -4.38791047940868e-09 0.000362239246445148</v>
<v>1.59643650196899e-09 -4.38866363000232e-09 0.000362239246445403</v>
<v>1.59654877330317e-09 -4.38857564431721e-09 0.000362239246445475</v>
<v>1.59615751267091e-09 -4.38860407392776e-09 0.000362239246445491</v>
<v>1.5966934877031e-09 -4.38875753600967e-09 0.000362239246445498</v>
<v>1.59644821928068e-09 -4.38871607252259e-09 0.000362239246445454</v>
<v>1.59434265789571e-09 -4.38816538661513e-09 0.000362239246445076</v>
<v>1.59649088458773e-09 -4.389003921003e-09 0.000362239246445444</v>
<v>1.59648523971993e-09 -4.38887641168988e-09 0.000362239246445442</v>
<v>1.5960393665097e-09 -4.38890148451564e-09 0.000362239246445493</v>
<v>1.59660326197045e-09 -4.38878771817879e-09 0.000362239246445457</v>
<v>1.59654950696551e-09 -4.38906094595796e-09 0.000362239246445408</v>
<v>-7.71269559329824e-09 -1.51450121332886e-08 0.000362239247112163</v>
<v>1.59659578045674e-09 -4.38868967495086e-09 0.000362239246445379</v>
<v>1.59648790556608e-09 -4.38864325446892e-09 0.00036223924644536</v>
<v>1.59625361098093e-09 -4.38863191658734e-09 0.000362239246445447</v>
<v>1.5963733810602e-09 -4.38878479109943e-09 0.000362239246445446</v>
<v>1.596392376472e-09 -4.38881017997012e-09 0.000362239246445294</v>
<v>0.000121733191535376 0.00073074927161162 0.00038175166226579</v>
<v>0.00012181252608362 0.000730721834084347 0.00038216692677287</v>
<v>0.000121733084590112 0.00073074931178907 0.000382166924454079</v>
<v>0.000121733084280776 0.000730749311505796 0.00038216692445405</v>
<v>0.000121733084073986 0.000730749311437431 0.000382166924453877</v>
<v>0.000128242202897325 0.00073666037167075 0.000382166425580671</v>
<v>0.000121733057958326 0.000730749304300904 0.000382243095773259</v>
<v>0.000124128696678487 0.000732121613729742 0.000382167051852416</v>
<v>0.000121733083885503 0.00073074931192515 0.000382166924454151</v>
<v>0.000121733083808668 0.000730749311837414 0.000382166924454265</v>
<v>0.00012173308320497 0.000730749311662939 0.000382166924454029</v>
<v>0.000122274173244924 0.000730533069800699 0.000382166904379628</v>
<v>0.000121748895712552 0.000730712095747827 0.000382166923339659</v>
<v>0.000121737491305665 0.00073082300355065 0.000382166926661113</v>
<v>0.000121733083957221 0.000730749311799742 0.000382166924454107</v>
<v>0.00012173308368382 0.000730749311594478 0.00038216692445411</v>
<v>0.000121733083736751 0.000730749311503175 0.000382166924454126</v>
<v>0.000121733085624395 0.000730749311480483 0.000382166924454573</v>
<v>0.000121733083608055 0.000730749311566108 0.000382166924454227</v>
<v>0.000121733083669052 0.000730749311641136 0.000382166924454164</v>
<v>0.000121733083998889 0.000730749311621726 0.000382166924454156</v>
<v>0.000121733083658742 0.00073074931160926 0.000382166924454146</v>
<v>0.000121733083151941 0.000730749311348701 0.000382166924453973</v>
<v>0.000121733084809617 0.000730749311295742 0.000382166924454511</v>
<v>0.000121733083648273 0.000730749311664848 0.000382166924454123</v>
<v>0.000121733083767675 0.00073074931163161 0.000382166924454125</v>
<v>0.00012173308389123 0.000730749311535477 0.00038216692445412</v>
<v>0.000121733083767857 0.000730749311532651 0.000382166924454084</v>
<v>0.000121733082966644 0.000730749311457172 0.00038216692445392</v>
<v>0.000121733085926556 0.000730749311214585 0.000382166924454724</v>
<v>0.000121733083630392 0.000730749311472438 0.000382166924454142</v>
<v>0.000121733083678927 0.000730749311363858 0.000382166924454171</v>
<v>0.000121733083858875 0.000730749311370206 0.000382166924454171</v>
<v>0.000121733083588216 0.000730749311338504 0.000382166924454147</v>
<v>0.000121733083442915 0.000730749311382127 0.000382166924454065</v>
<v>0.000121720059853322 0.000730779602087117 0.000382166923576005</v>
<v>-0.0152593195846685 -0.00775463831088438 0.000410456472629788</v>
<v>-0.00171713265630003 0.000704775814355419 0.000408553994008213</v>
<v>-0.00172826500588785 0.000700097488911008 0.000408554431294545</v>
<v>-0.00172826500560426 0.000700097488923384 0.000408554431294542</v>
<v>-0.00172826500513388 0.000700097489028443 0.000408554431294584</v>
<v>-0.0017279626104571 0.000700035274058137 0.000408554437109853</v>
<v>-0.00172820712454988 0.00070000126881609 0.000408554433293211</v>
<v>-0.00172834411221981 0.000700292736240784 0.000408554427238935</v>
<v>-0.00172826500591205 0.000700097489142007 0.000408554431294579</v>
<v>-0.00172826500550705 0.000700097489307631 0.000408554431294487</v>
<v>-0.00172826500514914 0.000700097489176868 0.000408554431294623</v>
<v>-0.00172826500538537 0.000700097489112493 0.000408554431294862</v>
<v>-0.00172826500534976 0.000700097489211957 0.000408554431294586</v>
<v>-0.00172826500550741 0.000700097489211147 0.000408554431294481</v>
<v>-0.00172826500566805 0.000700097489070716 0.000408554431294493</v>
<v>-0.00172826500543034 0.000700097489075729 0.000408554431294403</v>
<v>-0.00172826500455878 0.000700097489331432 0.000408554431294587</v>
<v>-0.00172826500495581 0.000700097489259334 0.000408554431294578</v>
<v>-0.00172826500561952 0.000700097489163588 0.000408554431294567</v>
<v>-0.00172826500566439 0.000700097489044302 0.000408554431294387</v>
<v>-0.00172826500543408 0.000700097488936331 0.000408554431294435</v>
<v>-0.00172826500538816 0.000700097489002079 0.000408554431294362</v>
<v>-0.0017282650044704 0.000700097489068092 0.000408554431294522</v>
<v>-0.00172826500526811 0.000700097488848883 0.000408554431294533</v>
<v>-0.00172826500573677 0.0007000974890503 0.000408554431294579</v>
<v>-0.00172826500563233 0.000700097489118851 0.00040855443129433</v>
<v>-0.00172826500565956 0.000700097488953527 0.000408554431294348</v>
<v>-0.00172826500549471 0.000700097489065566 0.000408554431294269</v>
<v>-0.00172826500504797 0.000700097489050402 0.00040855443129449</v>
<v>-0.00172826446385851 0.000700100633965039 0.000408554431343416</v>
<v>-0.00173213407710822 0.000697732734599096 0.000408554342879461</v>
<v>-0.00172811434931099 0.000700015809542646 0.000408554428240397</v>
<v>-0.00172826500597711 0.000700097488896656 0.000408554431294317</v>
<v>-0.00172826500547507 0.00070009748915556 0.000408554431294302</v>
<v>-0.00172826500562503 0.000700097489090208 0.000408554431294395</v>
<v>-0.00172707281265555 0.000701285725962779 0.000408554475721003</v>
<v>0.00187686512507124 -0.000193202170136242 0.000410138354204522</v>
<v>0.00187686518564644 -0.000193202228972963 0.000410447837874438</v>
<v>0.00187687189714123 -0.000193200876807101 0.000410206448394234</v>
<v>0.00187686512918291 -0.000193202165578155 0.000410206448454609</v>
<v>0.00187686512879826 -0.000193202165623137 0.000410206448454561</v>
<v>0.00187687271216205 -0.000193203614391076 0.000410206448522437</v>
<v>0.00187686847030305 -0.000193205955498377 0.000410206448499254</v>
<v>0.00187676639299792 -0.000193201529898599 0.000410206448447227</v>
<v>0.00187686823692279 -0.000193198656376443 0.000410206448413587</v>
<v>0.00187686512886682 -0.000193202165427712 0.000410206448454677</v>
<v>0.00187686512869369 -0.000193202165511919 0.000410206448454755</v>
<v>0.00187686512901322 -0.000193202165442441 0.000410206448454707</v>
<v>0.00187686512904717 -0.000193202165632067 0.000410206448454837</v>
<v>0.00187686512885786 -0.000193202165757894 0.000410206448454603</v>
<v>0.00187686512908363 -0.000193202165844442 0.000410206448454619</v>
<v>0.00187686512877703 -0.000193202165662919 0.00041020644845461</v>
<v>0.00187686512854756 -0.000193202165830097 0.000410206448454679</v>
<v>0.00187686512846213 -0.000193202165846163 0.00041020644845459</v>
<v>0.00187686512919444 -0.000193202165512219 0.000410206448454971</v>
<v>0.00187686512907353 -0.000193202165528001 0.000410206448454758</v>
<v>0.00187686512900448 -0.000193202165503682 0.000410206448454693</v>
<v>0.00187686512887912 -0.000193202165486572 0.00041020644845466</v>
<v>0.00187686512845708 -0.000193202165428213 0.000410206448454792</v>
<v>0.00187686512841891 -0.000193202165591921 0.000410206448454589</v>
<v>0.00187686597104647 -0.000193204404334235 0.000410206448433951</v>
<v>0.00187686512922265 -0.000193202165629984 0.000410206448454664</v>
<v>0.00187686512913683 -0.000193202165536979 0.000410206448454605</v>
<v>0.00187686512924301 -0.000193202165496577 0.000410206448454639</v>
<v>0.00187686512896574 -0.000193202165837394 0.000410206448454655</v>
<v>0.00187686599496395 -0.000193199844457228 0.000410206448476289</v>
<v>0.00187686534498938 -0.000193202130122416 0.000410824605099447</v>
<v>0.00187747990895701 -0.00019361348121753 0.000410206438826852</v>
<v>0.00187686512819278 -0.000193202164666506 0.000410206448454549</v>
<v>0.00187686512788109 -0.000193202164691875 0.000410206448454555</v>
<v>0.00187686512835015 -0.000193202164814662 0.000410206448454598</v>
<v>0.00187748297372244 -0.00019278780801455 0.000410206458153388</v>
<v>0.000259932879505209 -0.00184807600303549 0.000408554728216495</v>
<v>-0.0181185800095637 -0.0231798025529366 0.000404757180772721</v>
<v>0.000258016845458001 -0.00184674587762028 0.000408554479554568</v>
<v>0.000257826414841757 -0.00184676411746857 0.000408554482964438</v>
<v>0.000257826415298593 -0.00184676411750742 0.000408554482964309</v>
<v>0.000257826415489061 -0.00184676411735831 0.000408554482964222</v>
<v>0.00025783621254738 -0.00184677266700473 0.000408554483163968</v>
<v>0.000257561207458199 -0.00184710664124451 0.000408554490968271</v>
<v>0.000257948265008867 -0.00184660004867179 0.000408554479130198</v>
<v>0.000257826414894148 -0.00184676411765011 0.000408554482964313</v>
<v>0.00025782641504018 -0.00184676411750105 0.000408554482964181</v>
<v>0.000257826414530285 -0.00184676411750529 0.000408554482964299</v>
<v>0.000257826413139872 -0.00184676411727203 0.000408554482964154</v>
<v>0.000257826415134467 -0.00184676411748564 0.000408554482964208</v>
<v>0.000257826414908382 -0.00184676411746147 0.000408554482964146</v>
<v>0.000257826414696723 -0.00184676411742314 0.000408554482964363</v>
<v>0.000257826415080433 -0.00184676411739445 0.00040855448296413</v>
<v>0.000257826414938339 -0.00184676411737322 0.000408554482964105</v>
<v>0.000257826413102347 -0.00184676411727514 0.000408554482964204</v>
<v>0.000257826415058651 -0.00184676411753484 0.000408554482964141</v>
<v>0.000257826414982266 -0.00184676411740916 0.000408554482964243</v>
<v>0.000257826415094602 -0.00184676411752917 0.000408554482964196</v>
<v>0.000257826415071541 -0.00184676411741129 0.000408554482964148</v>
<v>0.000257826415248305 -0.00184676411740194 0.000408554482964176</v>
<v>0.000257826413300855 -0.00184676411726914 0.000408554482964105</v>
<v>0.000257826414604803 -0.00184676411741995 0.000408554482964347</v>
<v>0.000257826414763332 -0.00184676411753905 0.000408554482964251</v>
<v>0.000257826414453064 -0.00184676411754356 0.000408554482964353</v>
<v>0.000257826414970451 -0.00184676411740072 0.000408554482964237</v>
<v>0.000257826414992344 -0.00184676411749131 0.000408554482964485</v>
<v>0.000255959385619953 -0.00184395485908651 0.000408554570492574</v>
<v>0.000258308553015667 -0.00184728201841503 0.000408554466828185</v>
<v>0.000257826414482132 -0.00184676411708651 0.000408554482964509</v>
<v>0.000257826414220078 -0.00184676411709517 0.000408554482964503</v>
<v>0.00025782641475936 -0.00184676411724773 0.000408554482964403</v>
<v>0.000257960363572177 -0.00184667056903435 0.000408554485879128</v>
<v>-0.170106682296591 -0.132263146889668 0.000358009416656715</v>
<v>-0.000692880045036033 -0.000259812941465182 0.000382166909217802</v>
<v>-0.000693712403478428 -0.00025994715200884 0.000382166878068697</v>
<v>-0.000693712403678912 -0.000259947152015767 0.000382166878068734</v>
<v>-0.000693712404014232 -0.000259947152011294 0.00038216687806883</v>
<v>-0.000688273472392198 -0.000261165854038764 0.000382166595217847</v>
<v>-0.000693738217674624 -0.000260333533007742 0.000382166863720768</v>
<v>-0.000693581093689842 -0.000259645283164742 0.000382166889278475</v>
<v>-0.000693712403567395 -0.000259947152089514 0.000382166878068731</v>
<v>-0.00069371240402866 -0.00025994715210327 0.000382166878068756</v>
<v>-0.000693712403207932 -0.000259947152292624 0.000382166878068587</v>
<v>-0.000693712401785174 -0.000259947152948276 0.000382166878067877</v>
<v>-0.000693712403759378 -0.000259947151950745 0.000382166878068708</v>
<v>-0.000693712403612829 -0.000259947151947048 0.000382166878068691</v>
<v>-0.000693712403317358 -0.000259947152070147 0.000382166878068506</v>
<v>-0.000693712404110063 -0.000259947151941723 0.000382166878068742</v>
<v>-0.000693712403179531 -0.000259947151922413 0.000382166878068647</v>
<v>-0.000693712401443947 -0.000259947152644269 0.000382166878067786</v>
<v>-0.000693712403979184 -0.000259947151784365 0.000382166878068859</v>
<v>-0.000693712403933058 -0.000259947151846511 0.000382166878068808</v>
<v>-0.000693712403808749 -0.000259947151722679 0.000382166878068854</v>
<v>-0.000693712403896024 -0.000259947151834659 0.000382166878068814</v>
<v>-0.000693712404190731 -0.000259947151908503 0.000382166878068852</v>
<v>-0.000693712401726221 -0.000259947152479595 0.000382166878067961</v>
<v>-0.000693712403458905 -0.00025994715196278 0.000382166878068811</v>
<v>-0.000693712403455608 -0.000259947151748577 0.000382166878068881</v>
<v>-0.000693712403008754 -0.000259947151887544 0.000382166878068771</v>
<v>-0.000693712403620493 -0.000259947151827062 0.000382166878068818</v>
<v>-0.000693712403686281 -0.000259947152019257 0.000382166878068714</v>
<v>-0.000693712401749258 -0.000259947152757095 0.000382166878067931</v>
<v>-0.000692562689185196 -0.000261700401205349 0.000382166973812249</v>
<v>-0.000693712403733921 -0.00025994715137748 0.000382166878068394</v>
<v>-0.000693712403447322 -0.000259947151386405 0.000382166878068407</v>
<v>-0.000693712403972585 -0.000259947151261411 0.000382166878068554</v>
<v>-0.000693706219422012 -0.000259943986034527 0.000382166877895599</v>
<v>-0.000692994942487035 -0.000254890436283156 0.000382166601924061</v>
<v>0.654969426968446 -0.00841437909643876 0.000436262049715104</v>
<v>0.000753780243058562 0.000139708796695295 0.000404483285781813</v>
<v>0.000751673501663345 0.000139708796480217 0.000404483285781824</v>
<v>0.000751673501449009 0.000139708796625382 0.000404483285781868</v>
<v>0.000751673501716273 0.000139708796865175 0.000404483285781901</v>
<v>0.000753804693667631 0.000139708796641131 0.000404483285781803</v>
<v>0.000751967069753211 0.000138653025025193 0.000404483285781894</v>
<v>0.000751968219155111 0.000140760084510813 0.000404483285781808</v>
<v>0.000751673501781023 0.000139708796731439 0.00040448328578177</v>
<v>0.000751673501466826 0.000139708796794642 0.00040448328578181</v>
<v>0.000751673501739915 0.000139708796773679 0.00040448328578181</v>
<v>0.000751673500671856 0.000139708796959452 0.000404483285782023</v>
<v>0.000751673501624907 0.00013970879681353 0.000404483285781839</v>
<v>0.000751673501612169 0.000139708796809845 0.000404483285781732</v>
<v>0.000751673501693282 0.000139708796676303 0.000404483285781801</v>
<v>0.000751673501769975 0.000139708796863882 0.000404483285781865</v>
<v>0.000751673501818585 0.000139708796768768 0.000404483285782076</v>
<v>0.000751673501753198 0.000139708796745479 0.00040448328578203</v>
<v>0.00075167350176443 0.000139708796746685 0.000404483285781852</v>
<v>0.000751673501871964 0.000139708796644518 0.000404483285781728</v>
<v>0.000751673501785678 0.000139708796584697 0.000404483285781794</v>
<v>0.000751673501485803 0.00013970879668476 0.000404483285781819</v>
<v>0.000751673502232211 0.000139708796725498 0.000404483285781977</v>
<v>0.000751673501413726 0.000139708796665267 0.000404483285781842</v>
<v>0.000751673501666948 0.000139708796495571 0.000404483285781932</v>
<v>0.000751673501607181 0.000139708796324511 0.000404483285781774</v>
<v>0.000751673501530864 0.000139708796366291 0.000404483285781843</v>
<v>0.000751673501593057 0.000139708796552304 0.000404483285781985</v>
<v>0.000751673501973783 0.000139708796480943 0.000404483285781968</v>
<v>0.000751673501875189 0.000139708796466084 0.000404483285782149</v>
<v>0.000751968218757005 0.000138657508890162 0.000404483285781846</v>
<v>0.00075167350131216 0.000139708796504638 0.000404483285781779</v>
<v>0.000751673501224252 0.000139708796497376 0.000404483285781842</v>
<v>0.000751673501025772 0.000139708796686464 0.000404483285781764</v>
<v>0.000751673501293089 0.000139708796389435 0.00040448328578179</v>
<v>0.000751967069555397 0.000140764568504074 0.000404483285781867</v>
<v>-0.332949260623592 0.0540705973406579 0.000393347635143086</v>
<v>-0.00109519486183958 -0.00152816024916707 0.000410206234684568</v>
<v>-0.00110574748898439 -0.0015288098226321 0.000410206447546968</v>
<v>-0.00110574748866359 -0.00152880982256941 0.00041020644754697</v>
<v>-0.00110574748885776 -0.00152880982254795 0.000410206447547133</v>
<v>-0.0011051289327998 -0.00152883280742825 0.000410206455079306</v>
<v>-0.00110548142072773 -0.00152927418586168 0.000410206454464097</v>
<v>-0.00110588862271351 -0.0015277970498016 0.000410206432461362</v>
<v>-0.00110574748889238 -0.0015288098228141 0.000410206447547123</v>
<v>-0.00110574748852465 -0.00152880982272347 0.00041020644754692</v>
<v>-0.00110574748856673 -0.00152880982256163 0.00041020644754708</v>
<v>-0.00110574748801014 -0.0015288098229646 0.000410206447547102</v>
<v>-0.00110574748878191 -0.00152880982260639 0.000410206447547109</v>
<v>-0.0011057474886857 -0.00152880982268318 0.000410206447546998</v>
<v>-0.00110574748886858 -0.00152880982256262 0.000410206447546992</v>
<v>-0.0011057474886926 -0.00152880982267549 0.000410206447546868</v>
<v>-0.00110574748920337 -0.00152880982263247 0.000410206447546906</v>
<v>-0.0011057474888033 -0.0015288098225733 0.000410206447547118</v>
<v>-0.00110574748881511 -0.00152880982267935 0.000410206447547089</v>
<v>-0.00110574748866946 -0.00152880982257398 0.00041020644754703</v>
<v>-0.00110574748897923 -0.00152880982267504 0.000410206447547008</v>
<v>-0.00110574748878347 -0.00152880982267281 0.00041020644754694</v>
<v>-0.00110574748906868 -0.00152880982238275 0.000410206447546941</v>
<v>-0.00110574748843122 -0.00152880982265395 0.000410206447547151</v>
<v>-0.00110574748861037 -0.00152880982263975 0.000410206447547258</v>
<v>-0.00110574748854038 -0.00152880982271442 0.000410206447547201</v>
<v>-0.00110574748880932 -0.00152880982263318 0.000410206447547178</v>
<v>-0.0011057474886837 -0.00152880982271525 0.000410206447547055</v>
<v>-0.00110574748901457 -0.00152880982253372 0.000410206447547249</v>
<v>-0.0011057474883723 -0.00152880982255276 0.000410206447547215</v>
<v>-0.00110592707399581 -0.00153082760903001 0.00041020641448575</v>
<v>-0.00110574245476527 -0.00152881300678866 0.000410206447494929</v>
<v>-0.00110574748825992 -0.00152880982263356 0.000410206447547046</v>
<v>-0.00110574748830922 -0.00152880982261988 0.000410206447547009</v>
<v>-0.00110574748846646 -0.00152880982247722 0.000410206447547163</v>
<v>-0.00110537056016737 -0.00152818955071986 0.000410206457710375</v>
<v>-0.0176198243185243 0.0129546382680812 0.000404041928754443</v>
<v>0.00147336217374543 0.00114520482210078 0.000408554173723159</v>
<v>0.00147043144221094 0.00114666874020629 0.000408554447385141</v>
<v>0.00147043144209153 0.00114666874013439 0.000408554447385149</v>
<v>0.00147043144227088 0.00114666874018306 0.00040855444738501</v>
<v>0.00147062474316764 0.00114668728447563 0.000408554450851539</v>
<v>0.00147091454793451 0.00114614813386132 0.000408554463605939</v>
<v>0.00146858058895547 0.00114950169305419 0.000408554359118124</v>
<v>0.00147056384906349 0.0011467610356331 0.000408554444509436</v>
<v>0.00147043144254574 0.00114666873985455 0.000408554447385113</v>
<v>0.0014704314419485 0.0011466687399976 0.000408554447384981</v>
<v>0.00147043144316724 0.00114666873998931 0.000408554447385277</v>
<v>0.00147043144238874 0.00114666873977787 0.000408554447385236</v>
<v>0.00147043144229883 0.00114666873984091 0.0004085544473851</v>
<v>0.00147043144236802 0.00114666873994697 0.000408554447385104</v>
<v>0.00147043144259037 0.00114666874004936 0.000408554447385112</v>
<v>0.00147043144221018 0.0011466687400893 0.000408554447384941</v>
<v>0.00147043144209322 0.00114666873999727 0.000408554447385179</v>
<v>0.00147043144225163 0.00114666873995017 0.000408554447385224</v>
<v>0.00147043144219346 0.00114666874004631 0.000408554447385122</v>
<v>0.00147043144244418 0.00114666874005652 0.000408554447385193</v>
<v>0.00147043144281533 0.00114666874006717 0.000408554447385219</v>
<v>0.00147043144205854 0.0011466687401647 0.00040855444738497</v>
<v>0.00147043144197355 0.00114666874029402 0.000408554447385173</v>
<v>0.00147043144217027 0.00114666874014457 0.00040855444738516</v>
<v>0.00147043144230774 0.00114666874046269 0.000408554447385023</v>
<v>0.00147043144214798 0.00114666874044427 0.000408554447384951</v>
<v>0.001470431442339 0.00114666874038422 0.000408554447384919</v>
<v>0.00147043144218195 0.00114666874035769 0.000408554447384943</v>
<v>0.00147043144199027 0.00114666874026244 0.000408554447385142</v>
<v>0.00147016774862885 0.00114632324273639 0.000408554439311617</v>
<v>0.00147044083007184 0.00114666056902279 0.000408554447194057</v>
<v>0.00147043144225259 0.00114666874005968 0.000408554447384995</v>
<v>0.00147043144251585 0.00114666873996193 0.000408554447384963</v>
<v>0.00147043144212492 0.0011466687401673 0.00040855444738497</v>
<v>0.00147055396169654 0.00114683417414783 0.000408554451250995</v>
<v>-0.000771111949536163 0.00172200880940276 0.000410131731170527</v>
<v>-0.000771112115747844 0.0017220088804991 0.000410380298488857</v>
<v>-0.000771023674884614 0.00172200354798231 0.000410206421181821</v>
<v>-0.000771111946509386 0.00172200880383193 0.000410206422042971</v>
<v>-0.000771111946723268 0.00172200880392394 0.000410206422042984</v>
<v>-0.000771111946185919 0.00172200880392171 0.000410206422042901</v>
<v>-0.000770942117619411 0.00172187251038181 0.000410206424392998</v>
<v>-0.000772859811715685 0.00172089121546068 0.00041020644131838</v>
<v>-0.000770776669356199 0.00172233957284899 0.000410206416337934</v>
<v>-0.000771111946908184 0.00172200880385204 0.000410206422042919</v>
<v>-0.000771111946655826 0.00172200880353307 0.000410206422042909</v>
<v>-0.000771111947170922 0.00172200880374036 0.000410206422042845</v>
<v>-0.000771111947562297 0.00172200880304385 0.000410206422042326</v>
<v>-0.000771111946517264 0.00172200880379255 0.000410206422042897</v>
<v>-0.000771111946501294 0.00172200880374445 0.000410206422042891</v>
<v>-0.000771111946584707 0.00172200880365749 0.000410206422042898</v>
<v>-0.000771111946317521 0.00172200880396121 0.000410206422042961</v>
<v>-0.000771111946703676 0.00172200880374294 0.000410206422042714</v>
<v>-0.00077111194761903 0.00172200880268503 0.000410206422042304</v>
<v>-0.000771111946513323 0.00172200880346927 0.000410206422042768</v>
<v>-0.000771111946674579 0.00172200880342412 0.000410206422042791</v>
<v>-0.000771111947026047 0.00172200880338055 0.000410206422042865</v>
<v>-0.00077111194679064 0.00172200880329201 0.000410206422042783</v>
<v>-0.000771111945936943 0.00172200880356924 0.000410206422042598</v>
<v>-0.000771111947634573 0.00172200880298234 0.000410206422042274</v>
<v>-0.000771111946701136 0.00172200880342284 0.000410206422042899</v>
<v>-0.000771111946354964 0.00172200880349089 0.000410206422042868</v>
<v>-0.000771111946811919 0.00172200880350083 0.000410206422042879</v>
<v>-0.000771111946698017 0.00172200880355361 0.000410206422042778</v>
<v>-0.000771111946967556 0.00172200880354813 0.000410206422042731</v>
<v>-0.000771554443270706 0.00172227067835062 0.000410206425773704</v>
<v>-0.000770989485068572 0.00172186733047322 0.000410206420027335</v>
<v>-0.000771111946516371 0.00172200880348696 0.000410206422043</v>
<v>-0.000771111946734304 0.00172200880352268 0.00041020642204301</v>
<v>-0.00077111194665067 0.00172200880353144 0.000410206422043059</v>
<v>-0.000771062688467657 0.0017220550064523 0.000410206422701081</v>
<v>-0.0133890624674664 0.0237933447938945 0.000405953964458868</v>
<v>-0.000254544370472968 -0.000720885463466795 0.000404483273732977</v>
<v>-0.000254843040068681 -0.000720824114814739 0.000404483273732932</v>
<v>-0.000254843040346725 -0.000720824114677039 0.000404483273732952</v>
<v>-0.000254843040233769 -0.000720824114690773 0.000404483273733013</v>
<v>-0.000243633475850203 -0.000716098739026226 0.000404483273732855</v>
<v>-0.000258757958415756 -0.000723089840548054 0.000404483273733003</v>
<v>-0.000253659396455065 -0.000719647257666468 0.000404483273732979</v>
<v>-0.00025484303985592 -0.000720824114748718 0.000404483273732919</v>
<v>-0.000254843039399692 -0.000720824114595007 0.000404483273733097</v>
<v>-0.000254843039822266 -0.000720824114628224 0.000404483273732974</v>
<v>-0.000254690446045746 -0.000720906989617838 0.00040448327373266</v>
<v>-0.000254843039653296 -0.000720824114737709 0.000404483273733128</v>
<v>-0.000254842495106662 -0.000720820989487839 0.000404483273733066</v>
<v>-0.000254843039431989 -0.000720824114729676 0.000404483273733049</v>
<v>-0.000254843040057885 -0.000720824114855507 0.000404483273733091</v>
<v>-0.000254843039334411 -0.000720824114725819 0.000404483273733074</v>
<v>-0.000254843038452829 -0.000720824113984428 0.000404483273732898</v>
<v>-0.000254843039748774 -0.00072082411431496 0.000404483273733044</v>
<v>-0.000254843039592911 -0.000720824114186914 0.000404483273732966</v>
<v>-0.000254843039808532 -0.000720824114165223 0.000404483273732944</v>
<v>-0.000254843039323012 -0.000720824114180366 0.000404483273733082</v>
<v>-0.000254843040097292 -0.000720824114387609 0.000404483273733014</v>
<v>-0.00025484303851143 -0.000720824113524791 0.000404483273732915</v>
<v>-0.000254843039757021 -0.000720824114173498 0.000404483273732987</v>
<v>-0.000254843040086602 -0.000720824114237598 0.000404483273732913</v>
<v>-0.000254843039957663 -0.00072082411419201 0.000404483273732913</v>
<v>-0.000254843039891092 -0.000720824114198303 0.000404483273732905</v>
<v>-0.000254843039755284 -0.000720824114182625 0.000404483273732861</v>
<v>-0.000254843039467642 -0.000720824113393078 0.000404483273732707</v>
<v>-0.000254785450652311 -0.000720919543968063 0.000404483273733111</v>
<v>-0.000254843039842537 -0.000720824114281872 0.000404483273732996</v>
<v>-0.000254843039839881 -0.000720824114190083 0.000404483273733006</v>
<v>-0.00025484303984166 -0.000720824114238784 0.000404483273733016</v>
<v>-0.000254843039652841 -0.000720824114188284 0.000404483273732999</v>
<v>-0.000254922891636812 -0.000720629927018176 0.000404483273733046</v>
<v>-0.0836101392696885 0.0857823315817337 0.000438793088957657</v>
<v>1.03927308687631e-06 -2.27364530413844e-07 0.000424278356153501</v>
<v>-6.256771212243e-10 3.0498272796109e-09 0.000424278422390154</v>
<v>-6.25410667698389e-10 3.04978065024386e-09 0.000424278422390134</v>
<v>-6.25418834342834e-10 3.04982680950083e-09 0.000424278422390164</v>
<v>2.92163928888173e-06 7.55761662148136e-07 0.000424278638770696</v>
<v>1.85184328952673e-06 -5.71402815764731e-06 0.000424278935980431</v>
<v>1.90960476529734e-06 3.21894989919136e-06 0.000424278133491492</v>
<v>-6.25726351336542e-10 3.04971652364947e-09 0.000424278422390177</v>
<v>-6.25867794463081e-10 3.04974058952247e-09 0.000424278422390125</v>
<v>-6.25776113436297e-10 3.04969142897026e-09 0.000424278422390202</v>
<v>-6.25396592152105e-10 3.04986333410362e-09 0.00042427842239031</v>
<v>-6.26081259969338e-10 3.0494774095214e-09 0.000424278422390189</v>
<v>-5.45487534495825e-10 3.39666683788616e-09 0.00042427842237661</v>
<v>-6.26187459498498e-10 3.04959260408497e-09 0.000424278422390191</v>
<v>-6.26056568112316e-10 3.04944409356835e-09 0.000424278422390061</v>
<v>-6.26211682999028e-10 3.04957705743854e-09 0.000424278422390237</v>
<v>-6.26118469571058e-10 3.04959547545169e-09 0.0004242784223903</v>
<v>-6.25916170889779e-10 3.04974044000421e-09 0.000424278422390225</v>
<v>-6.26035179920905e-10 3.04964621688188e-09 0.00042427842239021</v>
<v>-6.25764112761697e-10 3.04978395257121e-09 0.00042427842239021</v>
<v>-6.25915284156397e-10 3.04974700969678e-09 0.000424278422390076</v>
<v>-6.25787540425751e-10 3.04972981945788e-09 0.000424278422390427</v>
<v>-6.25733838008347e-10 3.04983968201639e-09 0.000424278422390288</v>
<v>-6.26153164257418e-10 3.0495703557884e-09 0.000424278422390144</v>
<v>-6.25948156482711e-10 3.0496404013671e-09 0.000424278422390011</v>
<v>-6.25918709760689e-10 3.04976972754243e-09 0.000424278422390128</v>
<v>-6.25883762834693e-10 3.04960641221763e-09 0.000424278422390199</v>
<v>-6.25802843519287e-10 3.0496885039351e-09 0.000424278422390251</v>
<v>-6.25545587551457e-10 3.04971548188704e-09 0.000424278422390286</v>
<v>9.12056431867474e-08 -2.76149043230024e-07 0.000424278406955411</v>
<v>-6.25881454243858e-10 3.049803270221e-09 0.000424278422390268</v>
<v>-6.25897111596451e-10 3.04973101633577e-09 0.000424278422390357</v>
<v>-6.25612127485014e-10 3.04968238076103e-09 0.000424278422390137</v>
<v>-6.2558537682251e-10 3.04981265930723e-09 0.000424278422390214</v>
<v>3.15174129364437e-08 3.31668583750978e-07 0.000424278440557119</v>
<v>-0.00299095219226267 -0.0208169665404879 0.000412449599085531</v>
<v>-0.000495056017827041 0.000580277431110247 0.000404483251914523</v>
<v>-0.000496830669359904 0.000581110940419238 0.000404483251914532</v>
<v>-0.000496830669266646 0.00058111094037816 0.000404483251914634</v>
<v>-0.000496830669980131 0.000581110940478522 0.000404483251914568</v>
<v>-0.0004960087227008 0.000581436658008209 0.000404483251914721</v>
<v>-0.000490538778886488 0.000573561534427251 0.00040448325191476</v>
<v>-0.000498186481605228 0.000584951882660986 0.000404483251914635</v>
<v>-0.000496816057853452 0.000581116018482825 0.000404483251914701</v>
<v>-0.00049683067030622 0.000581110941519623 0.000404483251914662</v>
<v>-0.000496830670374822 0.000581110941454964 0.000404483251914601</v>
<v>-0.000496830670637253 0.000581110941478328 0.000404483251914993</v>
<v>-0.000496830670018106 0.000581110941496734 0.000404483251914641</v>
<v>-0.000496840013264292 0.000581100403930272 0.000404483251914447</v>
<v>-0.000496830670152338 0.000581110941727727 0.000404483251914495</v>
<v>-0.00049683066946398 0.000581110941575742 0.00040448325191444</v>
<v>-0.000496830670467578 0.00058111094178723 0.000404483251914548</v>
<v>-0.000496830670391343 0.000581110941679449 0.00040448325191451</v>
<v>-0.000496830670189878 0.000581110941501772 0.000404483251914747</v>
<v>-0.000496830670068104 0.000581110941676486 0.000404483251914567</v>
<v>-0.000496830670042132 0.000581110941697099 0.000404483251914647</v>
<v>-0.000496830670007274 0.000581110941557065 0.000404483251914648</v>
<v>-0.000496830670284559 0.000581110941752141 0.000404483251914759</v>
<v>-0.000496830670891417 0.000581110941706346 0.00040448325191468</v>
<v>-0.00049683066975084 0.000581110941502311 0.000404483251914648</v>
<v>-0.000496830669765617 0.000581110941643308 0.000404483251914556</v>
<v>-0.000496830669901261 0.000581110941496486 0.000404483251914628</v>
<v>-0.000496830669856576 0.000581110941548675 0.000404483251914646</v>
<v>-0.000496830670068332 0.000581110941498859 0.000404483251914689</v>
<v>-0.00049683066995545 0.000581110941585709 0.00040448325191456</v>
<v>-0.000496815391904816 0.000581008053770809 0.000404483251914823</v>
<v>-0.000496830670292208 0.000581110941686275 0.00040448325191472</v>
<v>-0.000496830670257249 0.000581110941675868 0.000404483251914741</v>
<v>-0.000496830670175679 0.000581110941707643 0.000404483251914738</v>
<v>-0.000496830671011799 0.000581110941694115 0.000404483251914871</v>
<v>-0.000496804802070587 0.000581188556606669 0.000404483251914793</v>
<v>0.000571979858565247 -0.000470795465185692 0.000381623470286974</v>
<v>0.000580390071928134 -0.000475522963362117 0.000382167471916958</v>
<v>0.000571980011973172 -0.000470795371394384 0.000382166923311756</v>
<v>0.000571980012092355 -0.000470795371320887 0.000382166923311732</v>
<v>0.000571980012392616 -0.000470795371505397 0.000382166923311703</v>
<v>0.000572232168644937 -0.000470726410129799 0.000382166915309329</v>
<v>0.000573937332622673 -0.000472449236630976 0.000382166805204437</v>
<v>0.000571980008773648 -0.000470795370672641 0.000382158847089957</v>
<v>0.000572200436595804 -0.000470691003949864 0.000382166930765029</v>
<v>0.000571980012198993 -0.000470795371252586 0.000382166923311756</v>
<v>0.000571980012530851 -0.000470795371272371 0.000382166923311634</v>
<v>0.000571980012127519 -0.000470795371392361 0.000382166923311959</v>
<v>0.000571980011792477 -0.000470795371377772 0.000382166923311667</v>
<v>0.000571980815246826 -0.000470813434203366 0.000382166922818694</v>
<v>0.000571980012159937 -0.000470795371603004 0.000382166923311871</v>
<v>0.000571980011595175 -0.000470795371424714 0.000382166923311977</v>
<v>0.000571980012652254 -0.000470795371633142 0.000382166923311957</v>
<v>0.000571980012575062 -0.000470795371557565 0.000382166923311993</v>
<v>0.000571980011919513 -0.00047079537146461 0.000382166923311792</v>
<v>0.000571980012057245 -0.000470795371418604 0.000382166923311975</v>
<v>0.000571980011703703 -0.000470795371465564 0.0003821669233118</v>
<v>0.000571980011802028 -0.000470795371349228 0.000382166923311911</v>
<v>0.000571980012128784 -0.000470795371599935 0.000382166923311752</v>
<v>0.000571980012726376 -0.000470795371542194 0.000382166923311958</v>
<v>0.000571980011857077 -0.000470795371400597 0.000382166923311818</v>
<v>0.000571980011941134 -0.000470795371433307 0.000382166923311954</v>
<v>0.000571980012068806 -0.000470795371591013 0.000382166923311931</v>
<v>0.000571980012358439 -0.000470795371439992 0.00038216692331185</v>
<v>0.00057198001204985 -0.000470795371542195 0.000382166923311853</v>
<v>0.000571980012603018 -0.00047079537146168 0.000382166923311961</v>
<v>0.000571943809910538 -0.000470912627302801 0.000382166927065298</v>
<v>0.000571980012048621 -0.00047079537139334 0.000382166923311782</v>
<v>0.000571980012169157 -0.000470795371342537 0.000382166923311759</v>
<v>0.000571980012083651 -0.000470795371353484 0.000382166923311868</v>
<v>0.000571980012645174 -0.000470795371458289 0.000382166923311819</v>
<v>0.000572005093603326 -0.000470752762365782 0.000382166921947975</v>
<v>1.05478317242481e-06 2.59897968312535e-06 -0.000359492547303884</v>
<v>1.15777292095624e-06 -1.51893934075589e-06 -0.000363840003237041</v>
<v>2.59147414638505e-09 -2.49610043745463e-09 -0.000362239031958474</v>
<v>2.59168619898276e-09 -2.49600767832092e-09 -0.000362239031958399</v>
<v>2.59167887151079e-09 -2.49603993029979e-09 -0.000362239031958446</v>
<v>2.59094738621745e-09 -2.49606354530731e-09 -0.000362239031958649</v>
<v>5.34713118131337e-07 -2.64479041536727e-07 -0.000361870247285871</v>
<v>-4.74529072535119e-06 6.23361584115457e-08 -0.000362330292455723</v>
<v>3.54913152089829e-07 1.33543733200534e-07 -0.000362430528997104</v>
<v>2.58920131770415e-09 -2.49521448945564e-09 -0.000362239031958755</v>
<v>2.58907123478191e-09 -2.49530512680569e-09 -0.000362239031958796</v>
<v>2.58849959576622e-09 -2.49518543939684e-09 -0.000362239031958751</v>
<v>2.59078162482412e-09 -2.49529792098122e-09 -0.000362239031958348</v>
<v>9.33528358039231e-09 -3.49372159157623e-08 -0.000362225331820549</v>
<v>1.04061314863101e-08 1.73279276355161e-08 -0.000362247403213113</v>
<v>2.58929225493558e-09 -2.49527413230482e-09 -0.000362239031958604</v>
<v>2.58916003832387e-09 -2.49527526426618e-09 -0.000362239031958721</v>
<v>2.58883969058051e-09 -2.49531316914636e-09 -0.000362239031958802</v>
<v>2.59060862518867e-09 -2.49524216133085e-09 -0.000362239031958561</v>
<v>2.58943684945884e-09 -2.49512308267441e-09 -0.000362239031958668</v>
<v>2.58962418513818e-09 -2.49516361570139e-09 -0.000362239031958699</v>
<v>2.58941683960429e-09 -2.49531505445876e-09 -0.000362239031958677</v>
<v>2.58938915680581e-09 -2.49515172037726e-09 -0.000362239031958694</v>
<v>2.58871171178975e-09 -2.49517393162077e-09 -0.000362239031958908</v>
<v>2.5905942478005e-09 -2.49535868227305e-09 -0.000362239031958408</v>
<v>2.58922675270765e-09 -2.49535186388821e-09 -0.00036223903195872</v>
<v>2.58929166493983e-09 -2.49550844040192e-09 -0.000362239031958705</v>
<v>2.58901944009734e-09 -2.4953656498916e-09 -0.000362239031958747</v>
<v>2.58899196299906e-09 -2.49547519618833e-09 -0.000362239031958689</v>
<v>2.58867379702293e-09 -2.4954834535601e-09 -0.000362239031958874</v>
<v>1.37518862183134e-09 -5.26020699481017e-09 -0.000362240093300985</v>
<v>2.58983163625541e-09 -2.49556790583492e-09 -0.000362239031958727</v>
<v>2.58985243258123e-09 -2.49550781254715e-09 -0.000362239031958813</v>
<v>2.58978713430988e-09 -2.49544605389774e-09 -0.000362239031958789</v>
<v>2.59000578202808e-09 -2.49557051911452e-09 -0.000362239031958838</v>
<v>2.58894304800729e-09 -2.49568324236756e-09 -0.000362239031958827</v>
<v>-0.00069288789923394 0.000263733903436814 -0.000375325756628006</v>
<v>-0.000691185588450268 0.000258440006278751 -0.000384906005120038</v>
<v>-0.000693713521030981 0.000259953475115565 -0.000382167114168221</v>
<v>-0.000693713521150774 0.000259953475172575 -0.000382167114168286</v>
<v>-0.000693713521313866 0.000259953475093444 -0.000382167114168302</v>
<v>-0.000693681278788673 0.000259960467747474 -0.000382154459856016</v>
<v>-0.000693295121361903 0.00025960633629496 -0.00038185300747576</v>
<v>-0.00069508693213364 0.000261549311033956 -0.000383611099111247</v>
<v>-0.000693608648331394 0.000260010011164289 -0.00038221827066345</v>
<v>-0.000693713521093434 0.00025995347508998 -0.000382167114168129</v>
<v>-0.000693713520953486 0.000259953475168445 -0.000382167114168112</v>
<v>-0.000693713521307761 0.000259953475169322 -0.00038216711416818</v>
<v>-0.000693713522000566 0.000259953474843089 -0.000382167114168226</v>
<v>-0.000693713521747009 0.000259953475446674 -0.00038216711416811</v>
<v>-0.000693713521388094 0.000259953475178546 -0.000382167114168114</v>
<v>-0.000693713521549972 0.000259953475394542 -0.000382167114168138</v>
<v>-0.000693713521805047 0.00025995347525943 -0.000382167114168241</v>
<v>-0.000693713521476076 0.000259953475204538 -0.000382167114168228</v>
<v>-0.000693713521827344 0.00025995347470964 -0.000382167114168233</v>
<v>-0.000693713521616596 0.000259953474899802 -0.000382167114168274</v>
<v>-0.000693713520865143 0.000259953474944438 -0.000382167114168062</v>
<v>-0.00069371352112922 0.000259953475107027 -0.000382167114168083</v>
<v>-0.000693713520753369 0.000259953475080185 -0.000382167114168073</v>
<v>-0.000693713521224744 0.000259953475064834 -0.000382167114168191</v>
<v>-0.000693713521914496 0.000259953474914809 -0.00038216711416839</v>
<v>-0.000693713521565599 0.000259953475271802 -0.000382167114168306</v>
<v>-0.000693713521198151 0.000259953475457394 -0.000382167114168244</v>
<v>-0.000693713521082568 0.000259953475475085 -0.000382167114168302</v>
<v>-0.000693713521000802 0.000259953475493898 -0.00038216711416818</v>
<v>-0.000693713521257968 0.000259953475285578 -0.000382167114168453</v>
<v>-0.000693738511224978 0.000259908820577026 -0.000382187316857827</v>
<v>-0.000693713521432537 0.00025995347561395 -0.000382167114168124</v>
<v>-0.000693713521230838 0.000259953475493551 -0.000382167114168153</v>
<v>-0.000693713521535729 0.000259953475693193 -0.000382167114168189</v>
<v>-0.000693713521533303 0.000259953475579475 -0.000382167114168216</v>
<v>-0.000693711498246822 0.000259956104752485 -0.000382165924677533</v>
<v>0.000756666553243024 -0.000137758022614665 -0.00039622797536667</v>
<v>0.000756683370648208 -0.000141660510116298 -0.000412705079742859</v>
<v>0.000751674563568675 -0.000139713181472594 -0.000404483059494033</v>
<v>0.000751674563604344 -0.000139713181744715 -0.000404483059494096</v>
<v>0.00075167456391885 -0.000139713181611598 -0.000404483059494144</v>
<v>0.000751674563998491 -0.000139713181568952 -0.000404483059494048</v>
<v>0.000751789018553772 -0.000139807074815489 -0.000404416985424382</v>
<v>0.000751015618332989 -0.000139709747559073 -0.000404485476236229</v>
<v>0.000751788011106059 -0.000139620324549296 -0.000404548404758057</v>
<v>0.000751674563580805 -0.000139713181831934 -0.00040448305949421</v>
<v>0.000751674563783251 -0.000139713181676789 -0.000404483059493944</v>
<v>0.000751674563534627 -0.000139713181791737 -0.000404483059494376</v>
<v>0.000751674562256666 -0.000139713182168193 -0.000404483059493957</v>
<v>0.000751674563874182 -0.000139713181978185 -0.000404483059494122</v>
<v>0.00075167456363995 -0.000139713181823601 -0.00040448305949407</v>
<v>0.000751674563553977 -0.000139713182021771 -0.000404483059494195</v>
<v>0.000751674564385666 -0.000139713181782898 -0.000404483059494107</v>
<v>0.000751674563308525 -0.000139713181849599 -0.000404483059494091</v>
<v>0.000751674562275317 -0.000139713181737073 -0.000404483059493824</v>
<v>0.000751674563637427 -0.000139713181457116 -0.000404483059493924</v>
<v>0.000751674563185155 -0.000139713181542524 -0.000404483059493941</v>
<v>0.000751674563344085 -0.000139713181590054 -0.000404483059494108</v>
<v>0.000751674563366518 -0.000139713181523649 -0.000404483059493888</v>
<v>0.000751674563324161 -0.000139713181604663 -0.000404483059493938</v>
<v>0.000751674562117444 -0.000139713181732275 -0.000404483059493931</v>
<v>0.000751674563877701 -0.000139713181674695 -0.000404483059494139</v>
<v>0.000751674563815973 -0.000139713181663886 -0.000404483059494051</v>
<v>0.000751674563658327 -0.000139713181761169 -0.000404483059494115</v>
<v>0.000751674563678766 -0.000139713181626596 -0.000404483059494015</v>
<v>0.000751674563326545 -0.000139713181737486 -0.000404483059494123</v>
<v>0.000751544261510029 -0.000139713804943317 -0.000404483388196694</v>
<v>0.000751685062214114 -0.000139723764933624 -0.000404488645072337</v>
<v>0.000751674564128552 -0.000139713181874677 -0.000404483059494153</v>
<v>0.000751674564253131 -0.000139713182007918 -0.000404483059494281</v>
<v>0.000751674564338666 -0.000139713181870783 -0.000404483059494151</v>
<v>0.000751685352964302 -0.000139702277467942 -0.00040447730432784</v>
<v>2.15929302094242e-06 -1.22917411457535e-06 -0.000416500260761342</v>
<v>5.12522351660432e-06 1.02197305375826e-06 -0.000430756366871084</v>
<v>2.08337767263617e-09 -9.06007424465727e-10 -0.000424278659303756</v>
<v>2.08322844716911e-09 -9.05991963742747e-10 -0.000424278659303742</v>
<v>2.08296551990235e-09 -9.0595464550397e-10 -0.000424278659303794</v>
<v>1.11204092249732e-08 -1.42598822984105e-09 -0.000424275366095475</v>
<v>4.07233322619049e-08 -4.36724454655479e-08 -0.000424255108950099</v>
<v>-1.58127445303003e-07 7.48272699895313e-08 -0.000424320363428267</v>
<v>6.8264283035805e-09 3.25176047218475e-09 -0.000424280948778457</v>
<v>2.0834456911669e-09 -9.05795361275572e-10 -0.000424278659303935</v>
<v>2.08307162084829e-09 -9.06004747903302e-10 -0.000424278659303966</v>
<v>2.08255299767243e-09 -9.05967513249034e-10 -0.000424278659304143</v>
<v>2.08310013682933e-09 -9.05719305110964e-10 -0.000424278659303963</v>
<v>2.08330876792215e-09 -9.05860101817533e-10 -0.000424278659303743</v>
<v>2.08330021390576e-09 -9.05841543739373e-10 -0.000424278659303849</v>
<v>2.08351187607164e-09 -9.05782678879621e-10 -0.000424278659303935</v>
<v>2.08284841222037e-09 -9.05953423591613e-10 -0.000424278659303855</v>
<v>2.08280422249463e-09 -9.05789721873662e-10 -0.000424278659303825</v>
<v>2.08350309227612e-09 -9.06166058856073e-10 -0.000424278659303995</v>
<v>2.08347287466372e-09 -9.06228955097836e-10 -0.00042427865930381</v>
<v>2.0836106140482e-09 -9.06186340169193e-10 -0.000424278659303812</v>
<v>2.08370336517595e-09 -9.06076169995343e-10 -0.000424278659303924</v>
<v>2.08323187470823e-09 -9.06258975589076e-10 -0.000424278659303901</v>
<v>2.08296756362344e-09 -9.06030964012775e-10 -0.000424278659303871</v>
<v>2.08305783733209e-09 -9.0634694194236e-10 -0.000424278659303924</v>
<v>2.08329741715549e-09 -9.06210919706405e-10 -0.000424278659303904</v>
<v>2.0831094341357e-09 -9.06250794155091e-10 -0.000424278659303671</v>
<v>2.08340525182734e-09 -9.06227966955976e-10 -0.000424278659303889</v>
<v>2.08274934804282e-09 -9.0633313193074e-10 -0.000424278659303817</v>
<v>2.08288596917003e-09 -9.06068523811796e-10 -0.00042427865930384</v>
<v>-4.6377626333749e-07 -2.370440317645e-07 -0.000424436069087941</v>
<v>5.39499518908255e-08 -4.10885710958397e-08 -0.000424305444938481</v>
<v>2.08343865857469e-09 -9.0605928315668e-10 -0.000424278659304021</v>
<v>2.08365968359589e-09 -9.06213885182306e-10 -0.000424278659304121</v>
<v>2.08324831474024e-09 -9.06215992871329e-10 -0.000424278659303938</v>
<v>1.31600310368258e-07 1.23219150110912e-07 -0.00042419591744231</v>
<v>-0.000493177759277694 -0.000583335036279165 -0.000399783520867936</v>
<v>-0.000493727069801888 -0.000577471633806022 -0.000412161932877046</v>
<v>-0.000496828124117057 -0.000581108995914752 -0.000404482983834287</v>
<v>-0.000496828075708992 -0.00058110897083839 -0.000404483036792651</v>
<v>-0.000496828075472781 -0.000581108970971846 -0.000404483036792562</v>
<v>-0.000496828075776972 -0.000581108971265711 -0.000404483036792592</v>
<v>-0.000496828076514036 -0.000581108970980682 -0.000404483036792886</v>
<v>-0.000496874629648449 -0.000581140169050305 -0.000404468400464998</v>
<v>-0.000496827996066355 -0.000581108991065869 -0.000404483027432468</v>
<v>-0.000496828076048571 -0.000581108971009314 -0.000404483036792749</v>
<v>-0.000496828076479792 -0.000581108971129993 -0.000404483036792856</v>
<v>-0.000496828075791876 -0.000581108971132146 -0.000404483036792714</v>
<v>-0.000496828076381586 -0.000581108971172917 -0.000404483036792803</v>
<v>-0.000496828075985943 -0.000581108970952899 -0.000404483036792718</v>
<v>-0.000496828076087907 -0.00058110897106363 -0.000404483036792705</v>
<v>-0.000496828075920261 -0.000581108971011738 -0.000404483036792634</v>
<v>-0.000496828076049255 -0.000581108971120064 -0.000404483036792801</v>
<v>-0.000496828075698011 -0.000581108971110821 -0.000404483036792581</v>
<v>-0.000496828076794562 -0.000581108971100142 -0.000404483036792954</v>
<v>-0.000496828076709105 -0.000581108970990759 -0.000404483036792885</v>
<v>-0.000496828076389803 -0.000581108970983356 -0.000404483036792832</v>
<v>-0.000496828076342431 -0.000581108970979313 -0.000404483036792769</v>
<v>-0.000496828076731536 -0.000581108971038278 -0.000404483036792927</v>
<v>-0.000496828075844174 -0.000581108970970976 -0.000404483036792665</v>
<v>-0.00049682807650514 -0.000581108971046573 -0.000404483036792875</v>
<v>-0.000496828076032056 -0.000581108970793182 -0.000404483036792788</v>
<v>-0.000496828075934893 -0.000581108970944635 -0.000404483036792771</v>
<v>-0.000496828075710006 -0.00058110897086512 -0.000404483036792733</v>
<v>-0.000496828075737016 -0.00058110897107463 -0.000404483036792695</v>
<v>-0.000496828074872115 -0.000581108970931961 -0.000404483036792591</v>
<v>-0.000498227262841738 -0.000580423128027918 -0.000403903869832735</v>
<v>-0.000496535620690493 -0.000581335736928584 -0.000404674532468737</v>
<v>-0.000496828076257658 -0.000581108970213795 -0.000404483036792528</v>
<v>-0.000496828076541722 -0.000581108970211797 -0.00040448303679262</v>
<v>-0.000496828076566522 -0.000581108970164557 -0.000404483036792721</v>
<v>-0.000496683603019717 -0.000581017820833498 -0.0004044060646074</v>
<v>0.00187233431309971 0.000193192204768414 -0.000410217866020399</v>
<v>0.00187730484258516 0.000192991857043767 -0.000410471637354854</v>
<v>0.00187686217867378 0.000193201053759751 -0.000410206657332414</v>
<v>0.00187686217918204 0.000193201053714454 -0.000410206657332426</v>
<v>0.00187686217843939 0.000193201053649693 -0.000410206657332406</v>
<v>0.00187730760603484 0.000193412036660687 -0.000409939414664249</v>
<v>0.00187842459125537 0.000190833117594025 -0.000407479967764859</v>
<v>0.00187842485364909 0.000195554693768648 -0.000412916884162949</v>
<v>0.00187686217867447 0.000193201053896349 -0.000410206657332695</v>
<v>0.00187686217881916 0.000193201053882975 -0.000410206657332722</v>
<v>0.00187686217814649 0.000193201053881873 -0.000410206657332656</v>
<v>0.00187686217917926 0.000193201053975433 -0.000410206657333068</v>
<v>0.00187686217838449 0.000193201054321392 -0.000410206657332728</v>
<v>0.00187685850248051 0.000193201108791089 -0.000410206678836473</v>
<v>0.00187686217794854 0.000193201054306963 -0.000410206657332638</v>
<v>0.00187686217831338 0.000193201054358347 -0.000410206657332511</v>
<v>0.00187686217836526 0.000193201054536793 -0.00041020665733264</v>
<v>0.00187686217781325 0.00019320105448708 -0.000410206657332694</v>
<v>0.0018768621782298 0.000193201054159602 -0.000410206657332846</v>
<v>0.00187686217795747 0.000193201054107277 -0.00041020665733269</v>
<v>0.00187686217808108 0.000193201054117777 -0.000410206657332756</v>
<v>0.00187686217843376 0.000193201054187817 -0.000410206657332746</v>
<v>0.00187686217863415 0.000193201053996535 -0.000410206657332776</v>
<v>0.00187686217796058 0.000193201054180568 -0.000410206657332901</v>
<v>0.00187686217815086 0.000193201054260062 -0.000410206657332666</v>
<v>0.0018768621779506 0.000193201054323229 -0.000410206657332544</v>
<v>0.00187686217809936 0.000193201054235168 -0.000410206657332644</v>
<v>0.00187686217828835 0.000193201054020243 -0.000410206657332611</v>
<v>0.00187686217847557 0.000193201053984927 -0.000410206657332703</v>
<v>0.00187686217817426 0.000193201054111746 -0.000410206657332629</v>
<v>0.00187686706426353 0.000193186015858174 -0.000410212801962586</v>
<v>0.00187686217822741 0.000193201053969825 -0.000410206657332752</v>
<v>0.00187686217838644 0.000193201053965067 -0.000410206657332747</v>
<v>0.00187686217839891 0.000193201054035176 -0.000410206657332764</v>
<v>0.00187686217856471 0.00019320105403024 -0.000410206657332836</v>
<v>0.001876867071536 0.000193216202680565 -0.000410200467628802</v>
<v>0.000250360120182702 0.00183686444828718 -0.000429449537505799</v>
<v>0.000258881415589959 0.00184638958120222 -0.000409342254514465</v>
<v>0.000257828604664778 0.00184676286021956 -0.000408554243019713</v>
<v>0.000257828604465105 0.00184676286036106 -0.000408554243019776</v>
<v>0.000257828604633417 0.00184676286013445 -0.000408554243019649</v>
<v>0.000258136235173608 0.00184683579620321 -0.000408400271354575</v>
<v>0.00025831767591078 0.00184605713855462 -0.000407958316360229</v>
<v>0.000258001372056674 0.00184843555184739 -0.000409966699025981</v>
<v>0.000257828604463617 0.00184676286063593 -0.000408554243019643</v>
<v>0.000257828604530036 0.0018467628607384 -0.000408554243019529</v>
<v>0.000257828604407529 0.00184676286056563 -0.000408554243019576</v>
<v>0.000257828604674731 0.00184676286102059 -0.000408554243019446</v>
<v>0.000257828604846633 0.00184676286014729 -0.000408554243019725</v>
<v>0.000257828605162703 0.00184676286016006 -0.000408554243019501</v>
<v>0.000257828605045764 0.00184676286028272 -0.000408554243019477</v>
<v>0.000257828605179589 0.00184676286038919 -0.000408554243019551</v>
<v>0.000257828605307761 0.00184676286048714 -0.000408554243019309</v>
<v>0.000257828605577627 0.001846762860262 -0.000408554243019449</v>
<v>0.000257828605007962 0.00184676286017771 -0.000408554243019726</v>
<v>0.000257828605255221 0.0018467628602942 -0.000408554243019502</v>
<v>0.000257828604635525 0.00184676286019736 -0.000408554243019642</v>
<v>0.000257828604933785 0.00184676286022777 -0.000408554243019609</v>
<v>0.000257828604164223 0.00184676286035886 -0.000408554243019622</v>
<v>0.000257828605273414 0.00184676286017738 -0.000408554243019423</v>
<v>0.000257828604926735 0.00184676286047447 -0.000408554243019777</v>
<v>0.000257828605238258 0.00184676286053161 -0.000408554243019567</v>
<v>0.000257828604917167 0.00184676286057989 -0.000408554243019627</v>
<v>0.000257828604654389 0.00184676286073863 -0.0004085542430196</v>
<v>0.000257828604476524 0.00184676286068638 -0.000408554243019691</v>
<v>0.00025782860509935 0.00184676286057987 -0.000408554243019579</v>
<v>0.000257832664546542 0.00184666087272473 -0.0004086020877263</v>
<v>0.000257828604613834 0.00184676286049615 -0.000408554243019526</v>
<v>0.00025782860439541 0.00184676286047152 -0.000408554243019531</v>
<v>0.000257828604670012 0.00184676286057919 -0.00040855424301957</v>
<v>0.000257828604637204 0.00184676286052542 -0.000408554243019446</v>
<v>0.000257855582479962 0.00184682119863395 -0.000408526875308386</v>
<v>-0.000742261366565588 -0.00173209238938557 -0.000537928835314455</v>
<v>-0.000770173887582466 -0.00172205882879155 -0.000410840088340387</v>
<v>-0.00077111115525286 -0.00172200881975843 -0.000410206658496207</v>
<v>-0.00077111115551197 -0.00172200881992456 -0.00041020665849616</v>
<v>-0.000771111154985075 -0.00172200881962855 -0.000410206658496156</v>
<v>-0.000770555231129927 -0.0017219846631637 -0.000409900683542787</v>
<v>-0.000770960323365585 -0.00172239998691516 -0.000409958921577809</v>
<v>-0.000771060022844779 -0.00172154523607033 -0.000410500259298925</v>
<v>-0.000771111154997512 -0.00172200882005179 -0.000410206658496205</v>
<v>-0.000771111155353185 -0.00172200881996934 -0.000410206658496046</v>
<v>-0.000771111155168532 -0.0017220088199123 -0.000410206658496217</v>
<v>-0.000771111156185944 -0.00172200881983031 -0.000410206658496075</v>
<v>-0.000771111155226399 -0.00172200881976556 -0.000410206658496169</v>
<v>-0.000771111155003069 -0.00172200881985866 -0.000410206658496126</v>
<v>-0.000771111155258249 -0.0017220088197007 -0.000410206658496161</v>
<v>-0.000771111155567161 -0.00172200881977064 -0.000410206658496084</v>
<v>-0.000771111156385712 -0.00172200881982588 -0.000410206658496253</v>
<v>-0.000771111155925125 -0.00172200881970402 -0.000410206658496349</v>
<v>-0.000771111155228542 -0.00172200881969343 -0.000410206658496076</v>
<v>-0.000771111154979572 -0.00172200881976016 -0.000410206658496076</v>
<v>-0.000771111155073987 -0.00172200881967337 -0.000410206658496088</v>
<v>-0.000771111155231612 -0.00172200881972251 -0.000410206658495967</v>
<v>-0.000771111155600989 -0.00172200881951448 -0.000410206658496183</v>
<v>-0.000771111155388998 -0.00172200881956397 -0.000410206658496109</v>
<v>-0.000771111155284701 -0.00172200882032997 -0.000410206658496033</v>
<v>-0.000771111154813778 -0.00172200882038793 -0.000410206658495967</v>
<v>-0.000771111155144486 -0.00172200882029134 -0.000410206658496079</v>
<v>-0.000771111155345613 -0.00172200882033936 -0.000410206658496049</v>
<v>-0.000771111155316759 -0.00172200882028405 -0.000410206658496149</v>
<v>-0.000771111155609225 -0.0017220088202981 -0.000410206658496211</v>
<v>-0.00077107774077028 -0.0017223312482316 -0.000410392297197074</v>
<v>-0.000771111155137472 -0.00172200881989191 -0.000410206658496016</v>
<v>-0.00077111115535733 -0.00172200881987244 -0.000410206658495991</v>
<v>-0.000771111155293013 -0.00172200881992251 -0.000410206658495941</v>
<v>-0.000771111155136941 -0.00172200881968052 -0.000410206658496081</v>
<v>-0.000771004441283321 -0.00172172626863859 -0.000410043979147422</v>
<v>-0.000278706384607993 0.000736076555482561 -0.000468875022650636</v>
<v>-0.000252911047505515 0.000721202434468912 -0.000406071212535561</v>
<v>-0.000254844258387484 0.000720826302682836 -0.000404483035905828</v>
<v>-0.000254844257969056 0.000720826302775686 -0.000404483035905821</v>
<v>-0.000254844258296659 0.000720826302782295 -0.000404483035905782</v>
<v>-0.000254621882481219 0.000720801964410549 -0.000404380269062168</v>
<v>-0.000254778271817788 0.000720712163828686 -0.0004044227946464</v>
<v>-0.000254884079601768 0.000721028352093479 -0.000404589675039812</v>
<v>-0.000254844258303538 0.000720826302972189 -0.000404483035905899</v>
<v>-0.000254844258277249 0.00072082630275659 -0.00040448303590582</v>
<v>-0.000254844258324791 0.000720826302840337 -0.00040448303590583</v>
<v>-0.000254844257530959 0.000720826302722605 -0.000404483035905918</v>
<v>-0.000254844258157682 0.000720826302823761 -0.000404483035905872</v>
<v>-0.00025484425837847 0.000720826302951914 -0.000404483035905891</v>
<v>-0.000254844258381841 0.0007208263029608 -0.000404483035905867</v>
<v>-0.000254844258254069 0.00072082630287526 -0.000404483035905815</v>
<v>-0.000254844257734488 0.000720826302678434 -0.000404483035905816</v>
<v>-0.000254844257827547 0.000720826302941601 -0.000404483035906052</v>
<v>-0.000254844258350152 0.000720826303036588 -0.000404483035905876</v>
<v>-0.000254844258453536 0.000720826303059978 -0.000404483035905841</v>
<v>-0.000254844258423902 0.000720826303071233 -0.000404483035905811</v>
<v>-0.000254844258664659 0.000720826303023784 -0.000404483035905759</v>
<v>-0.000254844257958427 0.00072082630291698 -0.000404483035905815</v>
<v>-0.000254844258060012 0.000720826303036907 -0.000404483035905959</v>
<v>-0.000254844258335662 0.000720826303540449 -0.000404483035905934</v>
<v>-0.000254844258682467 0.00072082630346359 -0.000404483035905801</v>
<v>-0.000254844258509745 0.000720826303449571 -0.000404483035905878</v>
<v>-0.000254844258742738 0.000720826303437081 -0.00040448303590576</v>
<v>-0.000254844258127631 0.00072082630348791 -0.000404483035905876</v>
<v>-0.00025484425830046 0.000720826303435966 -0.000404483035906073</v>
<v>-0.000254985159696312 0.000720000951952219 -0.000405063845710657</v>
<v>-0.000254844258598938 0.000720826302934928 -0.000404483035905688</v>
<v>-0.000254844258501715 0.000720826302795829 -0.000404483035905743</v>
<v>-0.000254844258404126 0.000720826302926379 -0.000404483035905702</v>
<v>-0.000254844258303237 0.000720826302995213 -0.000404483035905782</v>
<v>-0.000254578725007771 0.000721205398029357 -0.000404216261902018</v>
<v>0.00011655972095931 -0.00072963636243857 -0.000383933794281377</v>
<v>0.000122577918094623 -0.000730348797055217 -0.000382805655772496</v>
<v>0.000121732958407085 -0.000730752034072273 -0.000382167131158953</v>
<v>0.000121732958709926 -0.000730752034012277 -0.000382167131158854</v>
<v>0.000121732959196225 -0.00073075203406977 -0.000382167131158929</v>
<v>0.000121991503840104 -0.000730833473035767 -0.000382038172498058</v>
<v>0.000121744080010264 -0.000730775691775742 -0.00038215679679262</v>
<v>0.000121737208913285 -0.000730699805244384 -0.000382189945799467</v>
<v>0.000121732958356889 -0.00073075203380066 -0.000382167131158889</v>
<v>0.000121732958459373 -0.000730752033844825 -0.000382167131158777</v>
<v>0.000121732958952499 -0.000730752033897894 -0.000382167131158727</v>
<v>0.000121732958374515 -0.000730752034063212 -0.000382167131158399</v>
<v>0.000121732958220205 -0.000730752034044883 -0.0003821671311588</v>
<v>0.000121732957847561 -0.000730752034023625 -0.000382167131158744</v>
<v>0.000121732958039556 -0.000730752033961931 -0.000382167131158756</v>
<v>0.000121732957933391 -0.000730752034030131 -0.00038216713115879</v>
<v>0.000121732958678155 -0.000730752034060566 -0.000382167131158806</v>
<v>0.000121732957937829 -0.000730752034092655 -0.000382167131158391</v>
<v>0.000121732958217438 -0.000730752034011873 -0.00038216713115885</v>
<v>0.000121732958163457 -0.000730752033935979 -0.000382167131158794</v>
<v>0.000121732958369923 -0.000730752033982324 -0.000382167131158823</v>
<v>0.000121732958424673 -0.000730752033924208 -0.000382167131158864</v>
<v>0.000121732958780855 -0.000730752034010708 -0.000382167131158752</v>
<v>0.000121732958291204 -0.000730752034183417 -0.000382167131158474</v>
<v>0.000121732957948837 -0.000730752034274706 -0.000382167131158813</v>
<v>0.00012173295780131 -0.000730752034109563 -0.000382167131158701</v>
<v>0.000121732957946643 -0.00073075203428326 -0.00038216713115872</v>
<v>0.000121732957745347 -0.000730752034155572 -0.000382167131158687</v>
<v>0.000121732958712518 -0.000730752034335565 -0.000382167131158793</v>
<v>0.000121732986473076 -0.000730750016572238 -0.000382166379431664</v>
<v>0.000122153747506236 -0.00073329369146648 -0.000384643820696303</v>
<v>0.000121729726735702 -0.000730750725084117 -0.000382165856420176</v>
<v>0.000121732956540899 -0.000730752033315195 -0.000382167131158498</v>
<v>0.000121732956433579 -0.000730752033290288 -0.00038216713115841</v>
<v>0.000121732956918878 -0.000730752033393629 -0.00038216713115846</v>
<v>0.000122528073084214 -0.000729796129854192 -0.000381235662110209</v>
<v>-0.00173102970326475 -0.000702764460056262 -0.000412310579240049</v>
<v>-0.00172812994602278 -0.000700138872497536 -0.00040861545166206</v>
<v>-0.00172826397117154 -0.000700095381897414 -0.000408554245115531</v>
<v>-0.00172826397149328 -0.000700095381929611 -0.000408554245115442</v>
<v>-0.00172826397117755 -0.000700095381756731 -0.000408554245115496</v>
<v>-0.00172722611077116 -0.00069947055517363 -0.000407674893592293</v>
<v>-0.00172848116288446 -0.000703301110438771 -0.000405170484164123</v>
<v>-0.00172746020009365 -0.000699344581728713 -0.00040934674023684</v>
<v>-0.00172826397199039 -0.00070009538087429 -0.000408554245115283</v>
<v>-0.00172826397268313 -0.000700095380849475 -0.000408554245115417</v>
<v>-0.00172826397215149 -0.00070009538076839 -0.000408554245115262</v>
<v>-0.00172822885622408 -0.000700109244942982 -0.000408539611370892</v>
<v>-0.00172826397185293 -0.000700095381178583 -0.000408554245115318</v>
<v>-0.00172826383666761 -0.00070008910284992 -0.000408556654905109</v>
<v>-0.00172826397168346 -0.000700095381152596 -0.000408554245115311</v>
<v>-0.00172826397191961 -0.000700095381117497 -0.000408554245115246</v>
<v>-0.00172826397211169 -0.000700095381158339 -0.000408554245115327</v>
<v>-0.00172826397170571 -0.000700095381063829 -0.000408554245115507</v>
<v>-0.00172826397184036 -0.000700095381140732 -0.000408554245115413</v>
<v>-0.00172826397142272 -0.000700095381034462 -0.000408554245115414</v>
<v>-0.00172826397142248 -0.00070009538130122 -0.000408554245115416</v>
<v>-0.00172826397175825 -0.000700095381401053 -0.000408554245115436</v>
<v>-0.00172826397212029 -0.00070009538118955 -0.000408554245115325</v>
<v>-0.00172826397167816 -0.000700095381311601 -0.000408554245115612</v>
<v>-0.00172826397157628 -0.000700095381138921 -0.000408554245115372</v>
<v>-0.0017282639714308 -0.000700095381139585 -0.000408554245115315</v>
<v>-0.0017282639714717 -0.000700095381161054 -0.000408554245115323</v>
<v>-0.00172826397177173 -0.000700095381163616 -0.000408554245115312</v>
<v>-0.00172826397185296 -0.000700095381088814 -0.000408554245115229</v>
<v>-0.00172826397196238 -0.000700095381052811 -0.000408554245115629</v>
<v>-0.00172826153406234 -0.000700099550820256 -0.000408556005611253</v>
<v>-0.00172826397154618 -0.000700095381328968 -0.00040855424511544</v>
<v>-0.00172826397170326 -0.000700095381253947 -0.00040855424511544</v>
<v>-0.00172826397165127 -0.000700095381334622 -0.000408554245115375</v>
<v>-0.00172826397218436 -0.000700095381168094 -0.000408554245115462</v>
<v>-0.00172826452564608 -0.000700061044855345 -0.000408539747941869</v>
<v>-0.00111716179916725 0.00153297944311659 -0.000397003830257994</v>
<v>-0.00110563623623816 0.00152879416287816 -0.000410254428938253</v>
<v>-0.00110574841778555 0.00152880925432933 -0.000410206640925127</v>
<v>-0.00110574841783051 0.00152880925427062 -0.000410206640925058</v>
<v>-0.00110574841785943 0.00152880925434777 -0.00041020664092511</v>
<v>-0.00110312558879949 0.00152957865885456 -0.000407770262324405</v>
<v>-0.00110615431406361 0.0015278349505002 -0.000409480692626274</v>
<v>-0.00110544935079436 0.00152914915571408 -0.000410459899643005</v>
<v>-0.00110574841760499 0.0015288092541078 -0.000410206640925002</v>
<v>-0.00110574841737877 0.0015288092540406 -0.000410206640925026</v>
<v>-0.00110574841738444 0.00152880925415733 -0.00041020664092506</v>
<v>-0.00110573012071369 0.00152879851020793 -0.000410198635473215</v>
<v>-0.00110574841767381 0.00152880925432814 -0.000410206640925275</v>
<v>-0.00110574841775534 0.00152880925428115 -0.000410206640925229</v>
<v>-0.00110574841760266 0.00152880925430669 -0.000410206640925262</v>
<v>-0.00110574841836738 0.00152880925439732 -0.000410206640925255</v>
<v>-0.00110574841756587 0.00152880925471631 -0.000410206640925206</v>
<v>-0.00110574841622163 0.00152880925486687 -0.000410206640924821</v>
<v>-0.0011057484177182 0.00152880925454404 -0.000410206640925057</v>
<v>-0.00110574841771654 0.001528809254493 -0.000410206640925037</v>
<v>-0.00110574841781244 0.00152880925455936 -0.000410206640925011</v>
<v>-0.00110574841744109 0.00152880925466791 -0.000410206640924943</v>
<v>-0.00110574841735795 0.00152880925475035 -0.000410206640925119</v>
<v>-0.0011057484165421 0.00152880925491022 -0.000410206640924609</v>
<v>-0.00110574841795496 0.00152880925448136 -0.000410206640925049</v>
<v>-0.0011057484179734 0.00152880925440144 -0.000410206640925059</v>
<v>-0.00110574841785426 0.00152880925449932 -0.000410206640924944</v>
<v>-0.00110574841759761 0.00152880925441032 -0.000410206640924982</v>
<v>-0.00110574841757272 0.00152880925456988 -0.000410206640924887</v>
<v>-0.00110574841637429 0.00152880925487153 -0.000410206640924581</v>
<v>-0.00110570981492973 0.00152875138852762 -0.00041023595933551</v>
<v>-0.00110574841835321 0.00152880925469528 -0.000410206640925192</v>
<v>-0.00110574841827144 0.00152880925476483 -0.00041020664092513</v>
<v>-0.00110574841852653 0.00152880925460468 -0.000410206640925127</v>
<v>-0.00110574841778655 0.00152880925478661 -0.000410206640925159</v>
<v>-0.00110580290167095 0.00152894559808875 -0.000410137561246068</v>
<v>0.00145224320550855 -0.00114667032709884 -0.000244829879139468</v>
<v>0.00147080941673558 -0.00114667017571636 -0.000408744212049483</v>
<v>0.0014704308033561 -0.0011466701758373 -0.000408554242572078</v>
<v>0.00147043080341472 -0.0011466701758271 -0.000408554242572088</v>
<v>0.00147043080348274 -0.00114667017589093 -0.000408554242572164</v>
<v>0.00147185644072295 -0.0011466701764451 -0.000407497613286883</v>
<v>0.0014704062638095 -0.00114705353536232 -0.000408323016348909</v>
<v>0.00147057898865848 -0.00114638078795781 -0.000408728789129842</v>
<v>0.00147043080311272 -0.00114667017577457 -0.00040855424257198</v>
<v>0.0014704308029929 -0.00114667017574502 -0.00040855424257202</v>
<v>0.00147043080324239 -0.00114667017583163 -0.000408554242571938</v>
<v>0.00147043080458015 -0.00114667017535108 -0.000408554242572133</v>
<v>0.00147043080333995 -0.00114667017565587 -0.00040855424257216</v>
<v>0.00147043080319012 -0.00114667017566418 -0.000408554242572039</v>
<v>0.00147043080353592 -0.00114667017570523 -0.000408554242572077</v>
<v>0.00147043080360915 -0.00114667017586057 -0.000408554242572083</v>
<v>0.00147043080447258 -0.0011466701755726 -0.000408554242572281</v>
<v>0.00147043080454359 -0.00114667017548054 -0.000408554242572025</v>
<v>0.00147043080332093 -0.00114667017605307 -0.000408554242572027</v>
<v>0.00147043080310779 -0.00114667017613429 -0.00040855424257196</v>
<v>0.00147043080330619 -0.00114667017600974 -0.000408554242572035</v>
<v>0.00147043080312704 -0.00114667017610711 -0.00040855424257205</v>
<v>0.00147043080364875 -0.00114667017590706 -0.000408554242572008</v>
<v>0.00147043080411641 -0.00114667017577719 -0.000408554242571933</v>
<v>0.00147043080356076 -0.00114667017629084 -0.000408554242572083</v>
<v>0.0014704308031901 -0.00114667017631322 -0.000408554242571963</v>
<v>0.00147043080338017 -0.00114667017627638 -0.00040855424257199</v>
<v>0.00147043080363397 -0.00114667017623373 -0.000408554242572047</v>
<v>0.00147043080393315 -0.00114667017608466 -0.000408554242572058</v>
<v>0.00147043080479747 -0.00114667017606762 -0.000408554242571771</v>
<v>0.0014705789900898 -0.0011469595652417 -0.000408728790077571</v>
<v>0.00147043080371029 -0.00114667017592943 -0.000408554242572134</v>
<v>0.00147043080380199 -0.00114667017595346 -0.00040855424257212</v>
<v>0.00147043080355236 -0.00114667017615933 -0.000408554242572022</v>
<v>0.00147043080385526 -0.00114667017603543 -0.000408554242572158</v>
<v>0.00147040626487488 -0.00114628681374529 -0.000408323014717133</v>
<v>0.000573660707522183 0.000470247889382325 -0.000380770825980057</v>
<v>0.000559426728585686 0.00046135265103705 -0.000358235760873186</v>
<v>0.000572173199775164 0.000470834922419254 -0.000382258095624917</v>
<v>0.000571975619387982 0.000470799017610999 -0.000382167129545138</v>
<v>0.000571975619446599 0.000470799017561826 -0.000382167129545203</v>
<v>0.000571975619469632 0.000470799017359537 -0.000382167129545204</v>
<v>0.000571975618559151 0.000470799017641133 -0.00038216712954475</v>
<v>0.000571958028317208 0.000470671966042273 -0.000382105227251602</v>
<v>0.000572009385862642 0.000470859103824007 -0.000382196404873876</v>
<v>0.000571975619613364 0.000470799017569278 -0.000382167129545189</v>
<v>0.00057197561998927 0.000470799017538697 -0.000382167129545152</v>
<v>0.000571975619535513 0.000470799017500094 -0.000382167129545063</v>
<v>0.000571975618671283 0.000470799017423085 -0.000382167129544476</v>
<v>0.000571975619493761 0.000470799017297359 -0.000382167129545131</v>
<v>0.000571975619664459 0.000470799017472741 -0.000382167129545067</v>
<v>0.000571975619253961 0.000470799017335075 -0.000382167129545002</v>
<v>0.000571975619792482 0.000470799017372298 -0.000382167129545075</v>
<v>0.000571975619420938 0.000470799017055372 -0.000382167129544852</v>
<v>0.000571975618934628 0.000470799017912915 -0.000382167129544784</v>
<v>0.000571975620125881 0.000470799017846063 -0.000382167129545233</v>
<v>0.000571975619893736 0.000470799017823067 -0.000382167129545168</v>
<v>0.000571975620066289 0.000470799017734556 -0.000382167129545153</v>
<v>0.000571975620188669 0.000470799017853508 -0.000382167129545107</v>
<v>0.000571975619594433 0.000470799017585796 -0.000382167129545184</v>
<v>0.000571975618647302 0.000470799018228663 -0.000382167129544732</v>
<v>0.000571975619411511 0.000470799018045415 -0.000382167129545127</v>
<v>0.000571975619574979 0.000470799018141985 -0.000382167129545184</v>
<v>0.000571975619294436 0.000470799018067683 -0.000382167129545126</v>
<v>0.000571975619201707 0.000470799018155567 -0.000382167129545259</v>
<v>0.00057197561852237 0.000470799017787359 -0.00038216712954524</v>
<v>0.00057179559652254 0.000472172657444592 -0.000381079564103876</v>
<v>0.000572307840337111 0.000470358955121933 -0.000382515545376283</v>
<v>0.000571975618291587 0.000470799018339685 -0.000382167129544916</v>
<v>0.000571975618305798 0.000470799018394974 -0.00038216712954486</v>
<v>0.000571975618618881 0.000470799018594814 -0.000382167129545049</v>
<v>0.000571977640962062 0.000470800009751971 -0.000382166344463113</v>
  </varray>
 </calculation>
</modeling>
