<?xml version="1.0" encoding="ISO-8859-1"?>
<modeling>
 <generator>
  <i name="program" type="string">vasp</i>
  <i name="version" type="string">5.4.1</i>
 </generator>
 <calculation>
  <varray name="forces">
<v>-1.73973047656872e-06 -1.14485930180486e-06 0.000362239388956194</v>
<v>1.69813193922415e-07 -1.39111789413114e-07 0.000362239263279995</v>
<v>1.59697211010723e-09 -4.38927827417501e-09 0.000362239246445339</v>
<v>1.59657909115651e-09 -4.3892913748067e-09 0.000362239246445272</v>
<v>1.59690027867754e-09 -4.3893271239881e-09 0.000362239246445311</v>
<v>3.38681120704443e-07 3.29008132332023e-07 0.000362239204784508</v>
<v>1.48115120168768e-09 -4.3732499843685e-09 0.000361756513390486</v>
<v>1.60284764833592e-09 -4.3843956714436e-09 0.000362212652011302</v>
<v>1.59643678708705e-09 -4.38866509138488e-09 0.000362239246445366</v>
<v>1.59639852084222e-09 -4.38855636347105e-09 0.000362239246445399</v>
<v>1.59611760312421e-09 -4.38865400043034e-09 0.000362239246445419</v>
<v>9.17067335334809e-08 -9.76201812062042e-09 0.000362239240066755</v>
<v>1.24933407841255e-07 -1.47229524349868e-07 0.000362239231699953</v>
<v>-4.396339441486e-07 2.62900520435299e-07 0.000362239274036622</v>
<v>5.01767722328429e-08 4.10830973137156e-08 0.000362239251139329</v>
<v>1.59624354515684e-09 -4.38821979776654e-09 0.000362239246445472</v>
<v>1.59654874965401e-09 -4.38848329753271e-09 0.000362239246445473</v>
<v>1.59598757300261e-09 -4.38827236560243e-09 0.000362239246445377</v>
<v>1.59473834138169e-09 -4.38791047940868e-09 0.000362239246445148</v>
<v>1.59643650196899e-09 -4.38866363000232e-09 0.000362239246445403</v>
<v>1.59654877330317e-09 -4.38857564431721e-09 0.000362239246445475</v>
<v>1.59615751267091e-09 -4.38860407392776e-09 0.000362239246445491</v>
<v>1.5966934877031e-09 -4.38875753600967e-09 0.000362239246445498</v>
<v>1.59644821928068e-09 -4.38871607252259e-09 0.000362239246445454</v>
<v>1.59434265789571e-09 -4.38816538661513e-09 0.000362239246445076</v>
<v>1.59649088458773e-09 -4.389003921003e-09 0.000362239246445444</v>
<v>1.59648523971993e-09 -4.38887641168988e-09 0.000362239246445442</v>
<v>1.5960393665097e-09 -4.38890148451564e-09 0.000362239246445493</v>
<v>1.59660326197045e-09 -4.38878771817879e-09 0.000362239246445457</v>
<v>1.59654950696551e-09 -4.38906094595796e-09 0.000362239246445408</v>
<v>1.59417057332689e-09 -4.38798175572686e-09 0.000362239246445063</v>
<v>1.59659578045674e-09 -4.38868967495086e-09 0.000362239246445379</v>
<v>1.59648790556608e-09 -4.38864325446892e-09 0.00036223924644536</v>
<v>1.59625361098093e-09 -4.38863191658734e-09 0.000362239246445447</v>
<v>1.5963733810602e-09 -4.38878479109943e-09 0.000362239246445446</v>
<v>1.596392376472e-09 -4.38881017997012e-09 0.000362239246445294</v>
<v>0.00012221523279738 0.000730231406879967 0.000382166960594131</v>
<v>0.000121733083996878 0.000730749311700363 0.000382166924453852</v>
<v>0.000121733084590112 0.00073074931178907 0.000382166924454079</v>
<v>0.000121733084280776 0.000730749311505796 0.00038216692445405</v>
<v>0.000121867042158764 0.000730842865509476 0.000382166917925533</v>
<v>0.000119865916232254 0.000733558651427768 0.000382166728414344</v>
<v>-0.0181177121355012 0.0118829218919272 0.000388162203071364</v>
<v>0.000121923506631606 0.000730767551868349 0.000382166932090705</v>
<v>0.000121733083885503 0.00073074931192515 0.000382166924454151</v>
<v>0.000121733083808668 0.000730749311837414 0.000382166924454265</v>
<v>0.00012173308320497 0.000730749311662939 0.000382166924454029</v>
<v>0.000123838417843386 0.000729437559586932 0.000382166375261818</v>
<v>0.000121467886850612 0.000730406814683732 0.000382166906529394</v>
<v>0.000121854926532086 0.000730913369994093 0.000382166933040347</v>
<v>0.000121733083957221 0.000730749311799742 0.000382166924454107</v>
<v>0.00012173308368382 0.000730749311594478 0.00038216692445411</v>
<v>0.000121733083736751 0.000730749311503175 0.000382166924454126</v>
<v>0.000121742883793421 0.000730740762464377 0.000382166924007157</v>
<v>0.000121733083608055 0.000730749311566108 0.000382166924454227</v>
<v>0.000121733083669052 0.000730749311641136 0.000382166924454164</v>
<v>0.000121733083998889 0.000730749311621726 0.000382166924454156</v>
<v>0.000121733083658742 0.00073074931160926 0.000382166924454146</v>
<v>0.000121733083151941 0.000730749311348701 0.000382166924453973</v>
<v>0.000121733084809617 0.000730749311295742 0.000382166924454511</v>
<v>0.000121733083648273 0.000730749311664848 0.000382166924454123</v>
<v>0.000121733083767675 0.00073074931163161 0.000382166924454125</v>
<v>0.00012173308389123 0.000730749311535477 0.00038216692445412</v>
<v>0.000121733083767857 0.000730749311532651 0.000382166924454084</v>
<v>0.000121733082966644 0.000730749311457172 0.00038216692445392</v>
<v>0.000121733085926556 0.000730749311214585 0.000382166924454724</v>
<v>0.000121733083630392 0.000730749311472438 0.000382166924454142</v>
<v>0.000121733083678927 0.000730749311363858 0.000382166924454171</v>
<v>0.000121733083858875 0.000730749311370206 0.000382166924454171</v>
<v>0.000121733083588216 0.000730749311338504 0.000382166924454147</v>
<v>0.000121733083442915 0.000730749311382127 0.000382166924454065</v>
<v>0.000121733085667444 0.000730749311232182 0.000382166924454782</v>
<v>-0.307733195359863 0.0487017772916255 0.00039657486291555</v>
<v>-0.00172765230608239 0.000700074763504196 0.000408554425996075</v>
<v>-0.00172826500588785 0.000700097488911008 0.000408554431294545</v>
<v>-0.00172826500560426 0.000700097488923384 0.000408554431294542</v>
<v>-0.00172826500513388 0.000700097489028443 0.000408554431294584</v>
<v>-0.00171760466424816 0.00070075520269865 0.000408554584641657</v>
<v>-0.00172845232101195 0.000698080346941389 0.000408554454807047</v>
<v>-0.00172788944447197 0.000700713515218139 0.000408554424113886</v>
<v>-0.00172826500591205 0.000700097489142007 0.000408554431294579</v>
<v>-0.00172826500550705 0.000700097489307631 0.000408554431294487</v>
<v>-0.00172826500514914 0.000700097489176868 0.000408554431294623</v>
<v>-0.00172825946355686 0.000700093970837676 0.000408554431335872</v>
<v>-0.00172826500534976 0.000700097489211957 0.000408554431294586</v>
<v>-0.00172826500550741 0.000700097489211147 0.000408554431294481</v>
<v>-0.00172826500566805 0.000700097489070716 0.000408554431294493</v>
<v>-0.00172826500543034 0.000700097489075729 0.000408554431294403</v>
<v>-0.00172826500455878 0.000700097489331432 0.000408554431294587</v>
<v>-0.00172826500495581 0.000700097489259334 0.000408554431294578</v>
<v>-0.00172826500561952 0.000700097489163588 0.000408554431294567</v>
<v>-0.00172826500566439 0.000700097489044302 0.000408554431294387</v>
<v>-0.00172826500543408 0.000700097488936331 0.000408554431294435</v>
<v>-0.00172826500538816 0.000700097489002079 0.000408554431294362</v>
<v>-0.0017282650044704 0.000700097489068092 0.000408554431294522</v>
<v>-0.00172826500526811 0.000700097488848883 0.000408554431294533</v>
<v>-0.00172826500573677 0.0007000974890503 0.000408554431294579</v>
<v>-0.00172826500563233 0.000700097489118851 0.00040855443129433</v>
<v>-0.00172826500565956 0.000700097488953527 0.000408554431294348</v>
<v>-0.00172826500549471 0.000700097489065566 0.000408554431294269</v>
<v>-0.00172826500504797 0.000700097489050402 0.00040855443129449</v>
<v>-0.00172826500579236 0.000700097488929586 0.000408554431294421</v>
<v>-0.00172799889393412 0.000699635067089075 0.000408554426394219</v>
<v>-0.00172826500561221 0.000700097489048694 0.000408554431294282</v>
<v>-0.00172826500597711 0.000700097488896656 0.000408554431294317</v>
<v>-0.00172826500547507 0.00070009748915556 0.000408554431294302</v>
<v>-0.00172826500562503 0.000700097489090208 0.000408554431294395</v>
<v>-0.00172840984726983 0.000701109454870659 0.000408554442018016</v>
<v>0.629000206300291 0.00873827214386447 0.00047481366799345</v>
<v>0.00187897186998236 -0.000193202165560826 0.000410206448454627</v>
<v>0.00187686512921584 -0.000193202165651046 0.000410206448454571</v>
<v>0.00187686512918291 -0.000193202165578155 0.000410206448454609</v>
<v>0.00187686512879826 -0.000193202165623137 0.000410206448454561</v>
<v>0.00187899632004137 -0.000193202165752248 0.00041020644845462</v>
<v>0.00187715869736788 -0.000194257937210229 0.000410206448454895</v>
<v>0.0018771598466467 -0.000192150877664021 0.000410206448454663</v>
<v>0.00187686512923598 -0.000193202165563692 0.000410206448454657</v>
<v>0.00187686512886682 -0.000193202165427712 0.000410206448454677</v>
<v>0.00187686512869369 -0.000193202165511919 0.000410206448454755</v>
<v>0.00187686512901322 -0.000193202165442441 0.000410206448454707</v>
<v>0.00187686512904717 -0.000193202165632067 0.000410206448454837</v>
<v>0.00187686512885786 -0.000193202165757894 0.000410206448454603</v>
<v>0.00187686512908363 -0.000193202165844442 0.000410206448454619</v>
<v>0.00187686512877703 -0.000193202165662919 0.00041020644845461</v>
<v>0.00187686512854756 -0.000193202165830097 0.000410206448454679</v>
<v>0.00187686512846213 -0.000193202165846163 0.00041020644845459</v>
<v>0.00187686512919444 -0.000193202165512219 0.000410206448454971</v>
<v>0.00187686512907353 -0.000193202165528001 0.000410206448454758</v>
<v>0.00187686512900448 -0.000193202165503682 0.000410206448454693</v>
<v>0.00187686512887912 -0.000193202165486572 0.00041020644845466</v>
<v>0.00187686512845708 -0.000193202165428213 0.000410206448454792</v>
<v>0.00187686512841891 -0.000193202165591921 0.000410206448454589</v>
<v>0.00187686512916324 -0.000193202165602868 0.000410206448454913</v>
<v>0.00187686512922265 -0.000193202165629984 0.000410206448454664</v>
<v>0.00187686512913683 -0.000193202165536979 0.000410206448454605</v>
<v>0.00187686512924301 -0.000193202165496577 0.000410206448454639</v>
<v>0.00187686512896574 -0.000193202165837394 0.000410206448454655</v>
<v>0.00187686512935345 -0.000193202165720718 0.000410206448454555</v>
<v>0.0018771598459591 -0.000194253452323712 0.000410206448454844</v>
<v>0.00187686512820335 -0.00019320216470457 0.000410206448454561</v>
<v>0.00187686512819278 -0.000193202164666506 0.000410206448454549</v>
<v>0.00187686512788109 -0.000193202164691875 0.000410206448454555</v>
<v>0.00187686512835015 -0.000193202164814662 0.000410206448454598</v>
<v>0.00187715869650609 -0.000192146393003031 0.000410206448454514</v>
<v>-0.169983471286002 -0.144777097017055 0.000417530055878034</v>
<v>0.000263203032179603 -0.00184796650081997 0.000408554412887017</v>
<v>0.000257826414736703 -0.00184676411739962 0.000408554482964428</v>
<v>0.000257826414841757 -0.00184676411746857 0.000408554482964438</v>
<v>0.000257826415298593 -0.00184676411750742 0.000408554482964309</v>
<v>0.00025866448409828 -0.00184662871980645 0.000408554490855457</v>
<v>0.000258981054093166 -0.00184853114010186 0.000408554507196058</v>
<v>0.00025856011758267 -0.00184171888709864 0.000408554413776991</v>
<v>0.00025783200063786 -0.00184676126828724 0.000408554482925067</v>
<v>0.000257826414894148 -0.00184676411765011 0.000408554482964313</v>
<v>0.00025782641504018 -0.00184676411750105 0.000408554482964181</v>
<v>0.000257826414530285 -0.00184676411750529 0.000408554482964299</v>
<v>0.000257826413139872 -0.00184676411727203 0.000408554482964154</v>
<v>0.000257826415134467 -0.00184676411748564 0.000408554482964208</v>
<v>0.000257826414908382 -0.00184676411746147 0.000408554482964146</v>
<v>0.000257826414696723 -0.00184676411742314 0.000408554482964363</v>
<v>0.000257826415080433 -0.00184676411739445 0.00040855448296413</v>
<v>0.000257826414938339 -0.00184676411737322 0.000408554482964105</v>
<v>0.000257826413102347 -0.00184676411727514 0.000408554482964204</v>
<v>0.000257826415058651 -0.00184676411753484 0.000408554482964141</v>
<v>0.000257826414982266 -0.00184676411740916 0.000408554482964243</v>
<v>0.000257826415094602 -0.00184676411752917 0.000408554482964196</v>
<v>0.000257826415071541 -0.00184676411741129 0.000408554482964148</v>
<v>0.000257826415248305 -0.00184676411740194 0.000408554482964176</v>
<v>0.000257826413300855 -0.00184676411726914 0.000408554482964105</v>
<v>0.000257826414604803 -0.00184676411741995 0.000408554482964347</v>
<v>0.000257826414763332 -0.00184676411753905 0.000408554482964251</v>
<v>0.000257826414453064 -0.00184676411754356 0.000408554482964353</v>
<v>0.000257826414970451 -0.00184676411740072 0.000408554482964237</v>
<v>0.000257826414992344 -0.00184676411749131 0.000408554482964485</v>
<v>0.000257801723575035 -0.00184715042328532 0.000408554479362163</v>
<v>0.0002578264146835 -0.00184676411717206 0.000408554482964437</v>
<v>0.000257826414482132 -0.00184676411708651 0.000408554482964509</v>
<v>0.000257826414220078 -0.00184676411709517 0.000408554482964503</v>
<v>0.00025782641475936 -0.00184676411724773 0.000408554482964403</v>
<v>0.000257957617298601 -0.00184646097666285 0.000408554485791266</v>
<v>-0.000690786023153652 -0.000261410217123733 0.000382167490641321</v>
<v>-0.000693712403424211 -0.000259947152091023 0.000382166878068677</v>
<v>-0.000693712403478428 -0.00025994715200884 0.000382166878068697</v>
<v>-0.000693712403678912 -0.000259947152015767 0.000382166878068734</v>
<v>-0.000693519115874928 -0.000259928610022631 0.000382166870305462</v>
<v>-0.0198596219156771 -0.0240674737601772 0.000381145767635626</v>
<v>-0.000695563269004966 -0.000257114400461386 0.000382167075740861</v>
<v>-0.000693579992655922 -0.000259854852659434 0.000382166884509498</v>
<v>-0.000693712403567395 -0.000259947152089514 0.000382166878068731</v>
<v>-0.00069371240402866 -0.00025994715210327 0.000382166878068756</v>
<v>-0.000693712403207932 -0.000259947152292624 0.000382166878068587</v>
<v>-0.000693229308407206 -0.000260467739756659 0.00038216684174084</v>
<v>-0.000693712403759378 -0.000259947151950745 0.000382166878068708</v>
<v>-0.000693712403612829 -0.000259947151947048 0.000382166878068691</v>
<v>-0.000693712403317358 -0.000259947152070147 0.000382166878068506</v>
<v>-0.000693712404110063 -0.000259947151941723 0.000382166878068742</v>
<v>-0.000693712403179531 -0.000259947151922413 0.000382166878068647</v>
<v>-0.000693712401443947 -0.000259947152644269 0.000382166878067786</v>
<v>-0.000693712403979184 -0.000259947151784365 0.000382166878068859</v>
<v>-0.000693712403933058 -0.000259947151846511 0.000382166878068808</v>
<v>-0.000693712403808749 -0.000259947151722679 0.000382166878068854</v>
<v>-0.000693712403896024 -0.000259947151834659 0.000382166878068814</v>
<v>-0.000693712404190731 -0.000259947151908503 0.000382166878068852</v>
<v>-0.000693712401726221 -0.000259947152479595 0.000382166878067961</v>
<v>-0.000693712403458905 -0.00025994715196278 0.000382166878068811</v>
<v>-0.000693712403455608 -0.000259947151748577 0.000382166878068881</v>
<v>-0.000693712403008754 -0.000259947151887544 0.000382166878068771</v>
<v>-0.000693712403620493 -0.000259947151827062 0.000382166878068818</v>
<v>-0.000693712403686281 -0.000259947152019257 0.000382166878068714</v>
<v>-0.000693712401749258 -0.000259947152757095 0.000382166878067931</v>
<v>-0.000693703013125363 -0.000259955325108824 0.000382166878496343</v>
<v>-0.000693712403733921 -0.00025994715137748 0.000382166878068394</v>
<v>-0.000693712403447322 -0.000259947151386405 0.000382166878068407</v>
<v>-0.000693712403972585 -0.000259947151261411 0.000382166878068554</v>
<v>-0.000693589883367334 -0.000259781718952603 0.000382166869410407</v>
<v>-0.000693976111289074 -0.000260292647634802 0.000382166896149413</v>
<v>0.00075167349770813 0.000139708798485417 0.000404550023500702</v>
<v>0.000751680271115698 0.000139707507568869 0.000404483285842163</v>
<v>0.000751673501663345 0.000139708796480217 0.000404483285781824</v>
<v>0.000751673501449009 0.000139708796625382 0.000404483285781868</v>
<v>0.000751681083908624 0.000139710245217027 0.000404483285714097</v>
<v>0.000751673559284686 0.000139708683179447 0.000404758896847738</v>
<v>0.000751673720712833 0.000139708754684047 0.000404894370190511</v>
<v>0.000752288287800653 0.000140120118766189 0.000404483295409643</v>
<v>0.000751673501781023 0.000139708796731439 0.00040448328578177</v>
<v>0.000751673501466826 0.000139708796794642 0.00040448328578181</v>
<v>0.000751673501739915 0.000139708796773679 0.00040448328578181</v>
<v>0.000752291340794334 0.000139294445525367 0.000404483276083276</v>
<v>0.000751674367193451 0.000139706475696856 0.000404483285760107</v>
<v>0.000751674343538016 0.000139711035688495 0.000404483285802694</v>
<v>0.000751673501693282 0.000139708796676303 0.000404483285781801</v>
<v>0.000751673501769975 0.000139708796863882 0.000404483285781865</v>
<v>0.000751673501818585 0.000139708796768768 0.000404483285782076</v>
<v>0.000751673501753198 0.000139708796745479 0.00040448328578203</v>
<v>0.00075167350176443 0.000139708796746685 0.000404483285781852</v>
<v>0.000751673501871964 0.000139708796644518 0.000404483285781728</v>
<v>0.000751673501785678 0.000139708796584697 0.000404483285781794</v>
<v>0.000751673501485803 0.00013970879668476 0.000404483285781819</v>
<v>0.000751673502232211 0.000139708796725498 0.000404483285781977</v>
<v>0.000751673501413726 0.000139708796665267 0.000404483285781842</v>
<v>0.000751673501666948 0.000139708796495571 0.000404483285781932</v>
<v>0.000751673501607181 0.000139708796324511 0.000404483285781774</v>
<v>0.000751673501530864 0.000139708796366291 0.000404483285781843</v>
<v>0.000751673501593057 0.000139708796552304 0.000404483285781985</v>
<v>0.000751673501973783 0.000139708796480943 0.000404483285781968</v>
<v>0.000751673501875189 0.000139708796466084 0.000404483285782149</v>
<v>0.000751676609266306 0.000139705286880577 0.000404483285822922</v>
<v>0.00075167350131216 0.000139708796504638 0.000404483285781779</v>
<v>0.000751673501224252 0.000139708796497376 0.000404483285781842</v>
<v>0.000751673501025772 0.000139708796686464 0.000404483285781764</v>
<v>0.000751676842154103 0.000139712586036311 0.000404483285737438</v>
<v>0.000751574765152335 0.000139708163465493 0.000404483285789277</v>
<v>-0.0139573626170567 -0.00970739750695927 0.000413574079316324</v>
<v>-0.00110544880779077 -0.00152887117333704 0.000410206447546969</v>
<v>-0.00110574748898439 -0.0015288098226321 0.000410206447546968</v>
<v>-0.00110574748866359 -0.00152880982256941 0.00041020644754697</v>
<v>-0.00110574748885776 -0.00152880982254795 0.000410206447547133</v>
<v>-0.00109453805739977 -0.00152408459417796 0.000410206447547214</v>
<v>-0.00110966210985696 -0.00153107624763932 0.000410206447547196</v>
<v>-0.00110456384138096 -0.00152763294770364 0.000410206447547077</v>
<v>-0.00110574748889238 -0.0015288098228141 0.000410206447547123</v>
<v>-0.00110574748852465 -0.00152880982272347 0.00041020644754692</v>
<v>-0.00110574748856673 -0.00152880982256163 0.00041020644754708</v>
<v>-0.00110559490257106 -0.00152889269445836 0.000410206447547102</v>
<v>-0.00110574748878191 -0.00152880982260639 0.000410206447547109</v>
<v>-0.00110574694406298 -0.00152880669774618 0.000410206447546998</v>
<v>-0.00110574748886858 -0.00152880982256262 0.000410206447546992</v>
<v>-0.0011057474886926 -0.00152880982267549 0.000410206447546868</v>
<v>-0.00110574748920337 -0.00152880982263247 0.000410206447546906</v>
<v>-0.0011057474888033 -0.0015288098225733 0.000410206447547118</v>
<v>-0.00110574748881511 -0.00152880982267935 0.000410206447547089</v>
<v>-0.00110574748866946 -0.00152880982257398 0.00041020644754703</v>
<v>-0.00110574748897923 -0.00152880982267504 0.000410206447547008</v>
<v>-0.00110574748878347 -0.00152880982267281 0.00041020644754694</v>
<v>-0.00110574748906868 -0.00152880982238275 0.000410206447546941</v>
<v>-0.00110574748843122 -0.00152880982265395 0.000410206447547151</v>
<v>-0.00110574748861037 -0.00152880982263975 0.000410206447547258</v>
<v>-0.00110574748854038 -0.00152880982271442 0.000410206447547201</v>
<v>-0.00110574748880932 -0.00152880982263318 0.000410206447547178</v>
<v>-0.0011057474886837 -0.00152880982271525 0.000410206447547055</v>
<v>-0.00110574748901457 -0.00152880982253372 0.000410206447547249</v>
<v>-0.0011057474883723 -0.00152880982255276 0.000410206447547215</v>
<v>-0.00110568989720561 -0.00152890525668348 0.00041020644754723</v>
<v>-0.00110574748848599 -0.00152880982250818 0.000410206447547105</v>
<v>-0.00110574748825992 -0.00152880982263356 0.000410206447547046</v>
<v>-0.00110574748830922 -0.00152880982261988 0.000410206447547009</v>
<v>-0.00110574748846646 -0.00152880982247722 0.000410206447547163</v>
<v>-0.00110582734087746 -0.001528615630648 0.000410206447547202</v>
<v>0.00147043145383523 0.00114666874565117 0.000408589367121547</v>
<v>0.00147096791010897 0.00114645474754795 0.000408554442396394</v>
<v>0.00147043144221094 0.00114666874020629 0.000408554447385141</v>
<v>0.00147043144209153 0.00114666874013439 0.000408554447385149</v>
<v>0.00147043144227088 0.00114666874018306 0.00040855444738501</v>
<v>0.00147285087536385 0.0011480574758702 0.000408554479760182</v>
<v>0.00147043149454516 0.00114666881963427 0.000408761565309379</v>
<v>0.00147690122307674 0.00115252377436157 0.000408554323296737</v>
<v>0.00147043144207873 0.00114666874016195 0.000408554447385108</v>
<v>0.00147043144254574 0.00114666873985455 0.000408554447385113</v>
<v>0.0014704314419485 0.0011466687399976 0.000408554447384981</v>
<v>0.0014705124357193 0.00114664068081865 0.000408554447979947</v>
<v>0.00147043144238874 0.00114666873977787 0.000408554447385236</v>
<v>0.00147041851789406 0.00114669930642074 0.000408554447162414</v>
<v>0.00147043144236802 0.00114666873994697 0.000408554447385104</v>
<v>0.00147043144259037 0.00114666874004936 0.000408554447385112</v>
<v>0.00147043144221018 0.0011466687400893 0.000408554447384941</v>
<v>0.00147043144209322 0.00114666873999727 0.000408554447385179</v>
<v>0.00147043144225163 0.00114666873995017 0.000408554447385224</v>
<v>0.00147043144219346 0.00114666874004631 0.000408554447385122</v>
<v>0.00147043144244418 0.00114666874005652 0.000408554447385193</v>
<v>0.00147043144281533 0.00114666874006717 0.000408554447385219</v>
<v>0.00147043144205854 0.0011466687401647 0.00040855444738497</v>
<v>0.00147043144197355 0.00114666874029402 0.000408554447385173</v>
<v>0.00147043144217027 0.00114666874014457 0.00040855444738516</v>
<v>0.00147043144230774 0.00114666874046269 0.000408554447385023</v>
<v>0.00147043144214798 0.00114666874044427 0.000408554447384951</v>
<v>0.001470431442339 0.00114666874038422 0.000408554447384919</v>
<v>0.00147043144218195 0.00114666874035769 0.000408554447384943</v>
<v>0.00147043144199027 0.00114666874026244 0.000408554447385142</v>
<v>0.00147044719365157 0.0011466318220657 0.000408554447107481</v>
<v>0.00147043144229853 0.00114666874001823 0.000408554447384994</v>
<v>0.00147043144225259 0.00114666874005968 0.000408554447384995</v>
<v>0.00147043144251585 0.00114666873996193 0.000408554447384963</v>
<v>0.00147043144212492 0.0011466687401673 0.00040855444738497</v>
<v>0.00147043567178894 0.00114674243462753 0.000408554447939372</v>
<v>-0.00509725444160614 0.0151912590213621 0.000407388885782108</v>
<v>-0.000769337264162417 0.00172117529189429 0.000410206422042957</v>
<v>-0.000771111946481391 0.00172200880374359 0.000410206422042958</v>
<v>-0.000771111946509386 0.00172200880383193 0.000410206422042971</v>
<v>-0.000771111946723268 0.00172200880392394 0.000410206422042984</v>
<v>-0.000770289990271442 0.00172233452035108 0.000410206422042901</v>
<v>-0.000764820226976992 0.00171445952033333 0.0004102064220423</v>
<v>-0.000772466841827453 0.00172585078537682 0.000410206422042866</v>
<v>-0.000771097335380827 0.00172201388049641 0.000410206422042846</v>
<v>-0.000771111946908184 0.00172200880385204 0.000410206422042919</v>
<v>-0.000771111946655826 0.00172200880353307 0.000410206422042909</v>
<v>-0.000771111947170922 0.00172200880374036 0.000410206422042845</v>
<v>-0.000771111947562297 0.00172200880304385 0.000410206422042326</v>
<v>-0.000771121289145472 0.00172199826671972 0.000410206422042897</v>
<v>-0.000771111946501294 0.00172200880374445 0.000410206422042891</v>
<v>-0.000771111946584707 0.00172200880365749 0.000410206422042898</v>
<v>-0.000771111946317521 0.00172200880396121 0.000410206422042961</v>
<v>-0.000771111946703676 0.00172200880374294 0.000410206422042714</v>
<v>-0.00077111194761903 0.00172200880268503 0.000410206422042304</v>
<v>-0.000771111946513323 0.00172200880346927 0.000410206422042768</v>
<v>-0.000771111946674579 0.00172200880342412 0.000410206422042791</v>
<v>-0.000771111947026047 0.00172200880338055 0.000410206422042865</v>
<v>-0.00077111194679064 0.00172200880329201 0.000410206422042783</v>
<v>-0.000771111945936943 0.00172200880356924 0.000410206422042598</v>
<v>-0.000771111947634573 0.00172200880298234 0.000410206422042274</v>
<v>-0.000771111946701136 0.00172200880342284 0.000410206422042899</v>
<v>-0.000771111946354964 0.00172200880349089 0.000410206422042868</v>
<v>-0.000771111946811919 0.00172200880350083 0.000410206422042879</v>
<v>-0.000771111946698017 0.00172200880355361 0.000410206422042778</v>
<v>-0.000771111946967556 0.00172200880354813 0.000410206422042731</v>
<v>-0.000771096668267135 0.00172190591008015 0.000410206422042549</v>
<v>-0.000771111946667833 0.00172200880354368 0.000410206422043017</v>
<v>-0.000771111946516371 0.00172200880348696 0.000410206422043</v>
<v>-0.000771111946734304 0.00172200880352268 0.00041020642204301</v>
<v>-0.00077111194665067 0.00172200880353144 0.000410206422043059</v>
<v>-0.000771086076837996 0.00172208642207521 0.00041020642204279</v>
<v>-0.000252901800278059 -0.000722460540738339 0.000404483314983781</v>
<v>-0.000254843039618633 -0.000720824114765981 0.000404483273732977</v>
<v>-0.000254843040068681 -0.000720824114814739 0.000404483273732932</v>
<v>-0.000254843040346725 -0.000720824114677039 0.000404483273732952</v>
<v>-0.000254620006946152 -0.000720718327935732 0.000404483271066356</v>
<v>-0.000254843041778393 -0.000720824119753126 0.000404381617816328</v>
<v>-0.000254842978668132 -0.000720824324926207 0.000404098784213819</v>
<v>-0.000254594098520406 -0.000720756142865361 0.000404483276517254</v>
<v>-0.00025484303985592 -0.000720824114748718 0.000404483273732919</v>
<v>-0.000254843039399692 -0.000720824114595007 0.000404483273733097</v>
<v>-0.000254843039822266 -0.000720824114628224 0.000404483273732974</v>
<v>-0.000246363379011223 -0.000725604399191881 0.000404483077921885</v>
<v>-0.00025487964946253 -0.000720940787686265 0.000404483272414728</v>
<v>-0.000254818149838263 -0.000720781963432993 0.000404483274209374</v>
<v>-0.000254843039431989 -0.000720824114729676 0.000404483273733049</v>
<v>-0.000254843040057885 -0.000720824114855507 0.000404483273733091</v>
<v>-0.000254843039334411 -0.000720824114725819 0.000404483273733074</v>
<v>-0.000254843038452829 -0.000720824113984428 0.000404483273732898</v>
<v>-0.000254843039748774 -0.00072082411431496 0.000404483273733044</v>
<v>-0.000254843039592911 -0.000720824114186914 0.000404483273732966</v>
<v>-0.000254843039808532 -0.000720824114165223 0.000404483273732944</v>
<v>-0.000254843039323012 -0.000720824114180366 0.000404483273733082</v>
<v>-0.000254843040097292 -0.000720824114387609 0.000404483273733014</v>
<v>-0.00025484303851143 -0.000720824113524791 0.000404483273732915</v>
<v>-0.000254843039757021 -0.000720824114173498 0.000404483273732987</v>
<v>-0.000254843040086602 -0.000720824114237598 0.000404483273732913</v>
<v>-0.000254843039957663 -0.00072082411419201 0.000404483273732913</v>
<v>-0.000254843039891092 -0.000720824114198303 0.000404483273732905</v>
<v>-0.000254843039755284 -0.000720824114182625 0.000404483273732861</v>
<v>-0.000254843039467642 -0.000720824113393078 0.000404483273732707</v>
<v>-0.000254843039413993 -0.000720824114197754 0.000404483273733111</v>
<v>-0.000254843039842537 -0.000720824114281872 0.000404483273732996</v>
<v>-0.000254843039839881 -0.000720824114190083 0.000404483273733006</v>
<v>-0.00025484303984166 -0.000720824114238784 0.000404483273733016</v>
<v>-0.000254843039652841 -0.000720824114188284 0.000404483273732999</v>
<v>-0.000254842192789524 -0.000720842189633805 0.000404483273907269</v>
<v>6.27705876721577e-06 -7.49349373589995e-06 0.000424277729178271</v>
<v>-6.26031383989094e-10 3.04969445273808e-09 0.000424278422390168</v>
<v>-6.256771212243e-10 3.0498272796109e-09 0.000424278422390154</v>
<v>-6.25410667698389e-10 3.04978065024386e-09 0.000424278422390134</v>
<v>1.48136912431858e-08 8.4246696597525e-09 0.00042427842288718</v>
<v>-1.61905990826022e-06 3.56736027152388e-06 0.0004242787519852</v>
<v>-0.00427491720749931 -0.019593885632894 0.000432736789550479</v>
<v>8.17183049755232e-07 3.26397450393716e-07 0.000424278382523235</v>
<v>-6.25726351336542e-10 3.04971652364947e-09 0.000424278422390177</v>
<v>-6.25867794463081e-10 3.04974058952247e-09 0.000424278422390125</v>
<v>-6.25776113436297e-10 3.04969142897026e-09 0.000424278422390202</v>
<v>1.79223963593655e-06 -8.40516827601765e-07 0.000424278526396808</v>
<v>1.44483768939937e-08 -9.99919502725055e-08 0.000424278426201504</v>
<v>2.52670227336237e-08 8.03004131915765e-08 0.000424278419532723</v>
<v>-6.26187459498498e-10 3.04959260408497e-09 0.000424278422390191</v>
<v>-6.26056568112316e-10 3.04944409356835e-09 0.000424278422390061</v>
<v>-6.26211682999028e-10 3.04957705743854e-09 0.000424278422390237</v>
<v>-6.26118469571058e-10 3.04959547545169e-09 0.0004242784223903</v>
<v>-6.25916170889779e-10 3.04974044000421e-09 0.000424278422390225</v>
<v>-6.26035179920905e-10 3.04964621688188e-09 0.00042427842239021</v>
<v>-6.25764112761697e-10 3.04978395257121e-09 0.00042427842239021</v>
<v>-6.25915284156397e-10 3.04974700969678e-09 0.000424278422390076</v>
<v>-6.25787540425751e-10 3.04972981945788e-09 0.000424278422390427</v>
<v>-6.25733838008347e-10 3.04983968201639e-09 0.000424278422390288</v>
<v>-6.26153164257418e-10 3.0495703557884e-09 0.000424278422390144</v>
<v>-6.25948156482711e-10 3.0496404013671e-09 0.000424278422390011</v>
<v>-6.25918709760689e-10 3.04976972754243e-09 0.000424278422390128</v>
<v>-6.25883762834693e-10 3.04960641221763e-09 0.000424278422390199</v>
<v>-6.25802843519287e-10 3.0496885039351e-09 0.000424278422390251</v>
<v>-6.25545587551457e-10 3.04971548188704e-09 0.000424278422390286</v>
<v>-6.26173457920001e-10 3.04967325828395e-09 0.000424278422390226</v>
<v>-6.25881454243858e-10 3.049803270221e-09 0.000424278422390268</v>
<v>-6.25897111596451e-10 3.04973101633577e-09 0.000424278422390357</v>
<v>-6.25612127485014e-10 3.04968238076103e-09 0.000424278422390137</v>
<v>-6.2558537682251e-10 3.04981265930723e-09 0.000424278422390214</v>
<v>-9.93352358355515e-09 -7.70726626183466e-09 0.000424278422028525</v>
<v>-0.000494967653643232 0.000575418682384624 0.000404483368498917</v>
<v>-0.00049683066940018 0.000581110940539946 0.000404483251914523</v>
<v>-0.000496830669359904 0.000581110940419238 0.000404483251914532</v>
<v>-0.000496830669266646 0.00058111094037816 0.000404483251914634</v>
<v>-0.000496830669980131 0.000581110940478522 0.000404483251914568</v>
<v>-0.00049491451023361 0.000584351091935735 0.000404483185552494</v>
<v>-0.0797346486125999 0.0858839481533304 0.000402473451837717</v>
<v>-0.000493941481491046 0.000581853816095971 0.000404483300603086</v>
<v>-0.000496830669936527 0.000581110941430461 0.000404483251914701</v>
<v>-0.00049683067030622 0.000581110941519623 0.000404483251914662</v>
<v>-0.000496830670374822 0.000581110941454964 0.000404483251914601</v>
<v>-0.000495779699850211 0.000580877733024353 0.000404483236630369</v>
<v>-0.000496739164471547 0.000580830844833071 0.000404483248384336</v>
<v>-0.00049679761119938 0.000581439491722791 0.000404483256055452</v>
<v>-0.000496830670152338 0.000581110941727727 0.000404483251914495</v>
<v>-0.00049683066946398 0.000581110941575742 0.00040448325191444</v>
<v>-0.000496830670467578 0.00058111094178723 0.000404483251914548</v>
<v>-0.000496830670391343 0.000581110941679449 0.00040448325191451</v>
<v>-0.000496830670189878 0.000581110941501772 0.000404483251914747</v>
<v>-0.000496830670068104 0.000581110941676486 0.000404483251914567</v>
<v>-0.000496830670042132 0.000581110941697099 0.000404483251914647</v>
<v>-0.000496830670007274 0.000581110941557065 0.000404483251914648</v>
<v>-0.000496830670284559 0.000581110941752141 0.000404483251914759</v>
<v>-0.000496830670891417 0.000581110941706346 0.00040448325191468</v>
<v>-0.00049683066975084 0.000581110941502311 0.000404483251914648</v>
<v>-0.000496830669765617 0.000581110941643308 0.000404483251914556</v>
<v>-0.000496830669901261 0.000581110941496486 0.000404483251914628</v>
<v>-0.000496830669856576 0.000581110941548675 0.000404483251914646</v>
<v>-0.000496830670068332 0.000581110941498859 0.000404483251914689</v>
<v>-0.00049683066995545 0.000581110941585709 0.00040448325191456</v>
<v>-0.000496830670368929 0.000581110941870509 0.000404483251914823</v>
<v>-0.000496830670292208 0.000581110941686275 0.00040448325191472</v>
<v>-0.000496830670257249 0.000581110941675868 0.000404483251914741</v>
<v>-0.000496830670175679 0.000581110941707643 0.000404483251914738</v>
<v>-0.000496830671011799 0.000581110941694115 0.000404483251914871</v>
<v>-0.00049683059102457 0.000581111283419866 0.000404483251911768</v>
<v>0.000568111183270423 -0.000473160718180765 0.000382167121378768</v>
<v>0.000572130665406418 -0.000470877049692895 0.000382166930151329</v>
<v>0.000571980011973172 -0.000470795371394384 0.000382166923311756</v>
<v>0.000571980012092355 -0.000470795371320887 0.000382166923311732</v>
<v>0.000571980012392616 -0.000470795371505397 0.000382166923311703</v>
<v>0.000573172179493042 -0.00046960715320821 0.000382166823813992</v>
<v>-0.0123274296426412 0.0271872747141424 0.000385467172049367</v>
<v>0.000583112470871253 -0.000466117071237483 0.000382167902690426</v>
<v>0.000571980012066338 -0.000470795371317199 0.000382166923311856</v>
<v>0.000571980012198993 -0.000470795371252586 0.000382166923311756</v>
<v>0.000571980012530851 -0.000470795371272371 0.000382166923311634</v>
<v>0.000572282409066307 -0.000470857585589876 0.00038216691028773</v>
<v>0.000572037894628411 -0.00047089159485821 0.000382166918835276</v>
<v>0.000571900902767583 -0.000470600120654052 0.000382166932395117</v>
<v>0.000571980012159937 -0.000470795371603004 0.000382166923311871</v>
<v>0.000571980011595175 -0.000470795371424714 0.000382166923311977</v>
<v>0.000571980012652254 -0.000470795371633142 0.000382166923311957</v>
<v>0.000571980012575062 -0.000470795371557565 0.000382166923311993</v>
<v>0.000571980011919513 -0.00047079537146461 0.000382166923311792</v>
<v>0.000571980012057245 -0.000470795371418604 0.000382166923311975</v>
<v>0.000571980011703703 -0.000470795371465564 0.0003821669233118</v>
<v>0.000571980011802028 -0.000470795371349228 0.000382166923311911</v>
<v>0.000571980012128784 -0.000470795371599935 0.000382166923311752</v>
<v>0.000571980012726376 -0.000470795371542194 0.000382166923311958</v>
<v>0.000571980011857077 -0.000470795371400597 0.000382166923311818</v>
<v>0.000571980011941134 -0.000470795371433307 0.000382166923311954</v>
<v>0.000571980012068806 -0.000470795371591013 0.000382166923311931</v>
<v>0.000571980012358439 -0.000470795371439992 0.00038216692331185</v>
<v>0.00057198001204985 -0.000470795371542195 0.000382166923311853</v>
<v>0.000571980012603018 -0.00047079537146168 0.000382166923311961</v>
<v>0.000571980012242999 -0.000470795371397704 0.000382166923311672</v>
<v>0.000571980012048621 -0.00047079537139334 0.000382166923311782</v>
<v>0.000571980012169157 -0.000470795371342537 0.000382166923311759</v>
<v>0.000571980012083651 -0.000470795371353484 0.000382166923311868</v>
<v>0.000571980012645174 -0.000470795371458289 0.000382166923311819</v>
<v>0.000571980554273713 -0.000470792226776038 0.000382166923202269</v>
<v>-4.6300800925908e-07 -2.38466182833717e-07 -0.000362396369496932</v>
<v>5.44240311480134e-08 -4.26514889576815e-08 -0.00036226580636481</v>
<v>2.59147414638505e-09 -2.49610043745463e-09 -0.000362239031958474</v>
<v>2.59168619898276e-09 -2.49600767832092e-09 -0.000362239031958399</v>
<v>2.59167887151079e-09 -2.49603993029979e-09 -0.000362239031958446</v>
<v>1.32043196306576e-07 1.2156352849845e-07 -0.000362156312827682</v>
<v>2.16724015590208e-06 -1.23177025086957e-06 -0.000354452560016772</v>
<v>5.1214812265686e-06 1.0195954338228e-06 -0.000368713156914268</v>
<v>2.58925946322949e-09 -2.49523894222618e-09 -0.000362239031958796</v>
<v>2.58920131770415e-09 -2.49521448945564e-09 -0.000362239031958755</v>
<v>2.58907123478191e-09 -2.49530512680569e-09 -0.000362239031958796</v>
<v>1.16019571021761e-08 -3.01380889520956e-09 -0.000362235746894354</v>
<v>4.1203516271647e-08 -4.52305034706439e-08 -0.00036221549307403</v>
<v>-1.57547200435387e-07 7.31925998712297e-08 -0.000362280721463515</v>
<v>7.31979594500768e-09 1.65060241799096e-09 -0.000362241315484765</v>
<v>2.58929225493558e-09 -2.49527413230482e-09 -0.000362239031958604</v>
<v>2.58916003832387e-09 -2.49527526426618e-09 -0.000362239031958721</v>
<v>2.58883969058051e-09 -2.49531316914636e-09 -0.000362239031958802</v>
<v>2.59060862518867e-09 -2.49524216133085e-09 -0.000362239031958561</v>
<v>2.58943684945884e-09 -2.49512308267441e-09 -0.000362239031958668</v>
<v>2.58962418513818e-09 -2.49516361570139e-09 -0.000362239031958699</v>
<v>2.58941683960429e-09 -2.49531505445876e-09 -0.000362239031958677</v>
<v>2.58938915680581e-09 -2.49515172037726e-09 -0.000362239031958694</v>
<v>2.58871171178975e-09 -2.49517393162077e-09 -0.000362239031958908</v>
<v>2.5905942478005e-09 -2.49535868227305e-09 -0.000362239031958408</v>
<v>2.58922675270765e-09 -2.49535186388821e-09 -0.00036223903195872</v>
<v>2.58929166493983e-09 -2.49550844040192e-09 -0.000362239031958705</v>
<v>2.58901944009734e-09 -2.4953656498916e-09 -0.000362239031958747</v>
<v>2.58899196299906e-09 -2.49547519618833e-09 -0.000362239031958689</v>
<v>2.58867379702293e-09 -2.4954834535601e-09 -0.000362239031958874</v>
<v>2.59089661704126e-09 -2.49562077470414e-09 -0.000362239031958552</v>
<v>2.58983163625541e-09 -2.49556790583492e-09 -0.000362239031958727</v>
<v>2.58985243258123e-09 -2.49550781254715e-09 -0.000362239031958813</v>
<v>2.58978713430988e-09 -2.49544605389774e-09 -0.000362239031958789</v>
<v>2.59000578202808e-09 -2.49557051911452e-09 -0.000362239031958838</v>
<v>2.58894304800729e-09 -2.49568324236756e-09 -0.000362239031958827</v>
<v>-0.000695087042926201 0.000258357516514041 -0.000383611171843438</v>
<v>-0.000693608641268936 0.00025989693478656 -0.000382218273127563</v>
<v>-0.000693713521030981 0.000259953475115565 -0.000382167114168221</v>
<v>-0.000693713521150774 0.000259953475172575 -0.000382167114168286</v>
<v>-0.000693713521313866 0.000259953475093444 -0.000382167114168302</v>
<v>-0.000693295105778215 0.000260300625993877 -0.000381853004574106</v>
<v>-0.000692888122104052 0.000256173046842667 -0.00037532592880207</v>
<v>-0.000691185355826504 0.000261467079505013 -0.000384906181911433</v>
<v>-0.000693713521102576 0.00025995347499812 -0.000382167114168198</v>
<v>-0.000693713521093434 0.00025995347508998 -0.000382167114168129</v>
<v>-0.000693713520953486 0.000259953475168445 -0.000382167114168112</v>
<v>-0.000693681276322172 0.000259946482021394 -0.000382154459140208</v>
<v>-0.00069371149830838 0.000259950844711865 -0.000382165924271878</v>
<v>-0.000693738512711432 0.000259998132087936 -0.000382187317256312</v>
<v>-0.000693713521388094 0.000259953475178546 -0.000382167114168114</v>
<v>-0.000693713521549972 0.000259953475394542 -0.000382167114168138</v>
<v>-0.000693713521805047 0.00025995347525943 -0.000382167114168241</v>
<v>-0.000693713521476076 0.000259953475204538 -0.000382167114168228</v>
<v>-0.000693713521827344 0.00025995347470964 -0.000382167114168233</v>
<v>-0.000693713521616596 0.000259953474899802 -0.000382167114168274</v>
<v>-0.000693713520865143 0.000259953474944438 -0.000382167114168062</v>
<v>-0.00069371352112922 0.000259953475107027 -0.000382167114168083</v>
<v>-0.000693713520753369 0.000259953475080185 -0.000382167114168073</v>
<v>-0.000693713521224744 0.000259953475064834 -0.000382167114168191</v>
<v>-0.000693713521914496 0.000259953474914809 -0.00038216711416839</v>
<v>-0.000693713521565599 0.000259953475271802 -0.000382167114168306</v>
<v>-0.000693713521198151 0.000259953475457394 -0.000382167114168244</v>
<v>-0.000693713521082568 0.000259953475475085 -0.000382167114168302</v>
<v>-0.000693713521000802 0.000259953475493898 -0.00038216711416818</v>
<v>-0.000693713521257968 0.000259953475285578 -0.000382167114168453</v>
<v>-0.000693713522093797 0.000259953475191921 -0.000382167114168251</v>
<v>-0.000693713521432537 0.00025995347561395 -0.000382167114168124</v>
<v>-0.000693713521230838 0.000259953475493551 -0.000382167114168153</v>
<v>-0.000693713521535729 0.000259953475693193 -0.000382167114168189</v>
<v>-0.000693713521533303 0.000259953475579475 -0.000382167114168216</v>
<v>-0.000693713521236792 0.000259953475585398 -0.000382167114168176</v>
<v>0.000747146696628675 -0.00013972199938592 -0.000404494228237424</v>
<v>0.000752117232968673 -0.000139922381658837 -0.000404748043541088</v>
<v>0.000751674563568675 -0.000139713181472594 -0.000404483059494033</v>
<v>0.000751674563604344 -0.000139713181744715 -0.000404483059494096</v>
<v>0.00075167456391885 -0.000139713181611598 -0.000404483059494144</v>
<v>0.000752119986710416 -0.000139502201764885 -0.000404215820864422</v>
<v>0.000753236975624905 -0.000142081092981427 -0.00040175639927697</v>
<v>0.000753237238529015 -0.000137359516570426 -0.000407193315639992</v>
<v>0.000751674563407871 -0.000139713181742867 -0.000404483059493979</v>
<v>0.000751674563580805 -0.000139713181831934 -0.00040448305949421</v>
<v>0.000751674563783251 -0.000139713181676789 -0.000404483059493944</v>
<v>0.000751674563534627 -0.000139713181791737 -0.000404483059494376</v>
<v>0.000751674562256666 -0.000139713182168193 -0.000404483059493957</v>
<v>0.000751670888106031 -0.000139713127845618 -0.000404483080921399</v>
<v>0.00075167456363995 -0.000139713181823601 -0.00040448305949407</v>
<v>0.000751674563553977 -0.000139713182021771 -0.000404483059494195</v>
<v>0.000751674564385666 -0.000139713181782898 -0.000404483059494107</v>
<v>0.000751674563308525 -0.000139713181849599 -0.000404483059494091</v>
<v>0.000751674562275317 -0.000139713181737073 -0.000404483059493824</v>
<v>0.000751674563637427 -0.000139713181457116 -0.000404483059493924</v>
<v>0.000751674563185155 -0.000139713181542524 -0.000404483059493941</v>
<v>0.000751674563344085 -0.000139713181590054 -0.000404483059494108</v>
<v>0.000751674563366518 -0.000139713181523649 -0.000404483059493888</v>
<v>0.000751674563324161 -0.000139713181604663 -0.000404483059493938</v>
<v>0.000751674562117444 -0.000139713181732275 -0.000404483059493931</v>
<v>0.000751674563877701 -0.000139713181674695 -0.000404483059494139</v>
<v>0.000751674563815973 -0.000139713181663886 -0.000404483059494051</v>
<v>0.000751674563658327 -0.000139713181761169 -0.000404483059494115</v>
<v>0.000751674563678766 -0.000139713181626596 -0.000404483059494015</v>
<v>0.000751674563326545 -0.000139713181737486 -0.000404483059494123</v>
<v>0.000751679448772302 -0.000139728220655302 -0.000404489204204281</v>
<v>0.000751674564147902 -0.00013971318188185 -0.000404483059494152</v>
<v>0.000751674564128552 -0.000139713181874677 -0.000404483059494153</v>
<v>0.000751674564253131 -0.000139713182007918 -0.000404483059494281</v>
<v>0.000751674564338666 -0.000139713181870783 -0.000404483059494151</v>
<v>0.000751679456450956 -0.000139698033410172 -0.000404476869870099</v>
<v>2.58751797349577e-06 1.33682922794365e-05 -0.000390414056485025</v>
<v>4.86868353892198e-07 -1.05671597821328e-07 -0.000424544034350396</v>
<v>2.08337767263617e-09 -9.06007424465727e-10 -0.000424278659303756</v>
<v>2.08322844716911e-09 -9.05991963742747e-10 -0.000424278659303742</v>
<v>2.08296551990235e-09 -9.0595464550397e-10 -0.000424278659303794</v>
<v>7.93344183203006e-07 2.1202272810052e-07 -0.000423739302761971</v>
<v>2.79890480958667e-07 -1.18401139367896e-06 -0.000423342150843335</v>
<v>4.01744103160407e-07 7.7623021946332e-07 -0.000424893815360119</v>
<v>2.08308195940345e-09 -9.05840524801223e-10 -0.00042427865930376</v>
<v>2.0834456911669e-09 -9.05795361275572e-10 -0.000424278659303935</v>
<v>2.08307162084829e-09 -9.06004747903302e-10 -0.000424278659303966</v>
<v>2.08255299767243e-09 -9.05967513249034e-10 -0.000424278659304143</v>
<v>2.08310013682933e-09 -9.05719305110964e-10 -0.000424278659303963</v>
<v>2.08330876792215e-09 -9.05860101817533e-10 -0.000424278659303743</v>
<v>2.08330021390576e-09 -9.05841543739373e-10 -0.000424278659303849</v>
<v>2.08351187607164e-09 -9.05782678879621e-10 -0.000424278659303935</v>
<v>2.08284841222037e-09 -9.05953423591613e-10 -0.000424278659303855</v>
<v>2.08280422249463e-09 -9.05789721873662e-10 -0.000424278659303825</v>
<v>2.08350309227612e-09 -9.06166058856073e-10 -0.000424278659303995</v>
<v>2.08347287466372e-09 -9.06228955097836e-10 -0.00042427865930381</v>
<v>2.0836106140482e-09 -9.06186340169193e-10 -0.000424278659303812</v>
<v>2.08370336517595e-09 -9.06076169995343e-10 -0.000424278659303924</v>
<v>2.08323187470823e-09 -9.06258975589076e-10 -0.000424278659303901</v>
<v>2.08296756362344e-09 -9.06030964012775e-10 -0.000424278659303871</v>
<v>2.08305783733209e-09 -9.0634694194236e-10 -0.000424278659303924</v>
<v>2.08329741715549e-09 -9.06210919706405e-10 -0.000424278659303904</v>
<v>2.0831094341357e-09 -9.06250794155091e-10 -0.000424278659303671</v>
<v>2.08340525182734e-09 -9.06227966955976e-10 -0.000424278659303889</v>
<v>2.08274934804282e-09 -9.0633313193074e-10 -0.000424278659303817</v>
<v>2.08288596917003e-09 -9.06068523811796e-10 -0.00042427865930384</v>
<v>4.02232854801454e-08 -1.04725173949438e-07 -0.00042432923167811</v>
<v>2.08347985343254e-09 -9.06163635413496e-10 -0.000424278659304039</v>
<v>2.08343865857469e-09 -9.0605928315668e-10 -0.000424278659304021</v>
<v>2.08365968359589e-09 -9.06213885182306e-10 -0.000424278659304121</v>
<v>2.08324831474024e-09 -9.06215992871329e-10 -0.000424278659303938</v>
<v>2.18028288795531e-08 1.32584787900522e-07 -0.000424213633298577</v>
<v>-0.000467979702983429 -0.000591191726381779 -0.000532210483228205</v>
<v>-0.000495890791179182 -0.000581158974833195 -0.000405116480342075</v>
<v>-0.000496828075842452 -0.000581108970829479 -0.000404483036792591</v>
<v>-0.000496828075708992 -0.00058110897083839 -0.000404483036792651</v>
<v>-0.000496828075472781 -0.000581108970971846 -0.000404483036792562</v>
<v>-0.000496272158608869 -0.000581084818040564 -0.000404177066696038</v>
<v>-0.000496677245372043 -0.00058150013035313 -0.000404235306104382</v>
<v>-0.000496776949458399 -0.000580645398721452 -0.000404776628346197</v>
<v>-0.000496828076110283 -0.000581108971114024 -0.000404483036792737</v>
<v>-0.000496828076048571 -0.000581108971009314 -0.000404483036792749</v>
<v>-0.000496828076479792 -0.000581108971129993 -0.000404483036792856</v>
<v>-0.000496828075791876 -0.000581108971132146 -0.000404483036792714</v>
<v>-0.000496828076381586 -0.000581108971172917 -0.000404483036792803</v>
<v>-0.000496828075985943 -0.000581108970952899 -0.000404483036792718</v>
<v>-0.000496828076087907 -0.00058110897106363 -0.000404483036792705</v>
<v>-0.000496828075920261 -0.000581108971011738 -0.000404483036792634</v>
<v>-0.000496828076049255 -0.000581108971120064 -0.000404483036792801</v>
<v>-0.000496828075698011 -0.000581108971110821 -0.000404483036792581</v>
<v>-0.000496828076794562 -0.000581108971100142 -0.000404483036792954</v>
<v>-0.000496828076709105 -0.000581108970990759 -0.000404483036792885</v>
<v>-0.000496828076389803 -0.000581108970983356 -0.000404483036792832</v>
<v>-0.000496828076342431 -0.000581108970979313 -0.000404483036792769</v>
<v>-0.000496828076731536 -0.000581108971038278 -0.000404483036792927</v>
<v>-0.000496828075844174 -0.000581108970970976 -0.000404483036792665</v>
<v>-0.00049682807650514 -0.000581108971046573 -0.000404483036792875</v>
<v>-0.000496828076032056 -0.000581108970793182 -0.000404483036792788</v>
<v>-0.000496828075934893 -0.000581108970944635 -0.000404483036792771</v>
<v>-0.000496828075710006 -0.00058110897086512 -0.000404483036792733</v>
<v>-0.000496828075737016 -0.00058110897107463 -0.000404483036792695</v>
<v>-0.000496828074872115 -0.000581108970931961 -0.000404483036792591</v>
<v>-0.00049679466465978 -0.000581431404423016 -0.000404668679876314</v>
<v>-0.000496828076320734 -0.000581108970155336 -0.000404483036792585</v>
<v>-0.000496828076257658 -0.000581108970213795 -0.000404483036792528</v>
<v>-0.000496828076541722 -0.000581108970211797 -0.00040448303679262</v>
<v>-0.000496828076566522 -0.000581108970164557 -0.000404483036792721</v>
<v>-0.000496721357939977 -0.000580826414025984 -0.000404320353585201</v>
<v>0.00187713376662543 0.000192405916219477 -0.000410799094182756</v>
<v>0.00187686217829372 0.000193201053720637 -0.000410206657332384</v>
<v>0.00187686217867378 0.000193201053759751 -0.000410206657332414</v>
<v>0.00187686217918204 0.000193201053714454 -0.000410206657332426</v>
<v>0.00187686217843939 0.000193201053649693 -0.000410206657332406</v>
<v>0.00187713264280882 0.000193999512598584 -0.000409611745839174</v>
<v>0.00189723655758144 0.000192978231361483 -0.000409501086510246</v>
<v>0.00187753470754188 0.000193330141462089 -0.000410615413610744</v>
<v>0.00187686217867447 0.000193201053896349 -0.000410206657332695</v>
<v>0.00187686217881916 0.000193201053882975 -0.000410206657332722</v>
<v>0.00187686217814649 0.000193201053881873 -0.000410206657332656</v>
<v>0.00187753767230234 0.000193071079521362 -0.000409795092421735</v>
<v>0.00187690360793005 0.000193039849053498 -0.000410124983066489</v>
<v>0.00187690389913621 0.000193361870937327 -0.00041028813461649</v>
<v>0.00187686217794854 0.000193201054306963 -0.000410206657332638</v>
<v>0.00187686217831338 0.000193201054358347 -0.000410206657332511</v>
<v>0.00187686217836526 0.000193201054536793 -0.00041020665733264</v>
<v>0.00187686217781325 0.00019320105448708 -0.000410206657332694</v>
<v>0.0018768621782298 0.000193201054159602 -0.000410206657332846</v>
<v>0.00187686217795747 0.000193201054107277 -0.00041020665733269</v>
<v>0.00187686217808108 0.000193201054117777 -0.000410206657332756</v>
<v>0.00187686217843376 0.000193201054187817 -0.000410206657332746</v>
<v>0.00187686217863415 0.000193201053996535 -0.000410206657332776</v>
<v>0.00187686217796058 0.000193201054180568 -0.000410206657332901</v>
<v>0.00187686217815086 0.000193201054260062 -0.000410206657332666</v>
<v>0.0018768621779506 0.000193201054323229 -0.000410206657332544</v>
<v>0.00187686217809936 0.000193201054235168 -0.000410206657332644</v>
<v>0.00187686217828835 0.000193201054020243 -0.000410206657332611</v>
<v>0.00187686217847557 0.000193201053984927 -0.000410206657332703</v>
<v>0.00187686217817426 0.000193201054111746 -0.000410206657332629</v>
<v>0.00187686217820666 0.000193201054169384 -0.000410206657332852</v>
<v>0.00187686217822741 0.000193201053969825 -0.000410206657332752</v>
<v>0.00187686217838644 0.000193201053965067 -0.000410206657332747</v>
<v>0.00187686217839891 0.000193201054035176 -0.000410206657332764</v>
<v>0.00187686217856471 0.00019320105403024 -0.000410206657332836</v>
<v>0.00187686217867844 0.000193201054054632 -0.000410206657332954</v>
<v>0.000258249666067412 0.00184421989246658 -0.000411031885231539</v>
<v>0.000257825386843677 0.0018467641639491 -0.000408552972823176</v>
<v>0.000257828604664778 0.00184676286021956 -0.000408554243019713</v>
<v>0.000257828604465105 0.00184676286036106 -0.000408554243019776</v>
<v>0.000257828604633417 0.00184676286013445 -0.000408554243019649</v>
<v>0.000258624070370901 0.00184771912405019 -0.000407622544324854</v>
<v>0.000252652786353599 0.00184788649565304 -0.000410333223470733</v>
<v>0.000258673871785306 0.00184716625014994 -0.000409192904136558</v>
<v>0.000257828604463617 0.00184676286063593 -0.000408554243019643</v>
<v>0.000257828604530036 0.0018467628607384 -0.000408554243019529</v>
<v>0.000257828604407529 0.00184676286056563 -0.000408554243019576</v>
<v>0.000258087210435584 0.00184668140138335 -0.000408425273122793</v>
<v>0.000257839730098436 0.00184673919406708 -0.000408543906685374</v>
<v>0.000257832855828634 0.00184681510243882 -0.000408577060218511</v>
<v>0.000257828605045764 0.00184676286028272 -0.000408554243019477</v>
<v>0.000257828605179589 0.00184676286038919 -0.000408554243019551</v>
<v>0.000257828605307761 0.00184676286048714 -0.000408554243019309</v>
<v>0.000257828605577627 0.001846762860262 -0.000408554243019449</v>
<v>0.000257828605007962 0.00184676286017771 -0.000408554243019726</v>
<v>0.000257828605255221 0.0018467628602942 -0.000408554243019502</v>
<v>0.000257828604635525 0.00184676286019736 -0.000408554243019642</v>
<v>0.000257828604933785 0.00184676286022777 -0.000408554243019609</v>
<v>0.000257828604164223 0.00184676286035886 -0.000408554243019622</v>
<v>0.000257828605273414 0.00184676286017738 -0.000408554243019423</v>
<v>0.000257828604926735 0.00184676286047447 -0.000408554243019777</v>
<v>0.000257828605238258 0.00184676286053161 -0.000408554243019567</v>
<v>0.000257828604917167 0.00184676286057989 -0.000408554243019627</v>
<v>0.000257828604654389 0.00184676286073863 -0.0004085542430196</v>
<v>0.000257828604476524 0.00184676286068638 -0.000408554243019691</v>
<v>0.00025782860509935 0.00184676286057987 -0.000408554243019579</v>
<v>0.000257828604652136 0.0018467628603201 -0.000408554243019587</v>
<v>0.000257828604613834 0.00184676286049615 -0.000408554243019526</v>
<v>0.00025782860439541 0.00184676286047152 -0.000408554243019531</v>
<v>0.000257828604670012 0.00184676286057919 -0.00040855424301957</v>
<v>0.000257828604637204 0.00184676286052542 -0.000408554243019446</v>
<v>0.000257828632653357 0.00184676488034819 -0.000408553490596031</v>
<v>-0.000768535122688277 -0.00172589001021959 -0.00041635169538778</v>
<v>-0.000771117164242158 -0.0017220074192498 -0.000410204440942381</v>
<v>-0.00077111115525286 -0.00172200881975843 -0.000410206658496207</v>
<v>-0.00077111115551197 -0.00172200881992456 -0.00041020665849616</v>
<v>-0.000771111154985075 -0.00172200881962855 -0.000410206658496156</v>
<v>-0.000768419757800995 -0.00171978352000257 -0.000406683371109392</v>
<v>-0.000773459205990089 -0.00172305108277948 -0.000409191159633244</v>
<v>-0.000770713656333192 -0.00172173891320375 -0.000410469634623544</v>
<v>-0.000771111154997512 -0.00172200882005179 -0.000410206658496205</v>
<v>-0.000771111155353185 -0.00172200881996934 -0.000410206658496046</v>
<v>-0.000771111155168532 -0.0017220088199123 -0.000410206658496217</v>
<v>-0.000770903135299192 -0.00172212362476504 -0.000410094801588913</v>
<v>-0.000771111155226399 -0.00172200881976556 -0.000410206658496169</v>
<v>-0.000771111625341115 -0.00172201055705445 -0.000410206011329099</v>
<v>-0.000771111155258249 -0.0017220088197007 -0.000410206658496161</v>
<v>-0.000771111155567161 -0.00172200881977064 -0.000410206658496084</v>
<v>-0.000771111156385712 -0.00172200881982588 -0.000410206658496253</v>
<v>-0.000771111155925125 -0.00172200881970402 -0.000410206658496349</v>
<v>-0.000771111155228542 -0.00172200881969343 -0.000410206658496076</v>
<v>-0.000771111154979572 -0.00172200881976016 -0.000410206658496076</v>
<v>-0.000771111155073987 -0.00172200881967337 -0.000410206658496088</v>
<v>-0.000771111155231612 -0.00172200881972251 -0.000410206658495967</v>
<v>-0.000771111155600989 -0.00172200881951448 -0.000410206658496183</v>
<v>-0.000771111155388998 -0.00172200881956397 -0.000410206658496109</v>
<v>-0.000771111155284701 -0.00172200882032997 -0.000410206658496033</v>
<v>-0.000771111154813778 -0.00172200882038793 -0.000410206658495967</v>
<v>-0.000771111155144486 -0.00172200882029134 -0.000410206658496079</v>
<v>-0.000771111155345613 -0.00172200882033936 -0.000410206658496049</v>
<v>-0.000771111155316759 -0.00172200882028405 -0.000410206658496149</v>
<v>-0.000771111155609225 -0.0017220088202981 -0.000410206658496211</v>
<v>-0.00077111115505143 -0.00172200881989615 -0.000410206658495968</v>
<v>-0.000771111155137472 -0.00172200881989191 -0.000410206658496016</v>
<v>-0.00077111115535733 -0.00172200881987244 -0.000410206658495991</v>
<v>-0.000771111155293013 -0.00172200881992251 -0.000410206658495941</v>
<v>-0.000771111155136941 -0.00172200881968052 -0.000410206658496081</v>
<v>-0.000771131262137986 -0.00172199201742418 -0.000410199319771094</v>
<v>-0.000266257716302636 0.000724996446262422 -0.000391280156110953</v>
<v>-0.000254732078099528 0.000720811211928367 -0.000404530823296477</v>
<v>-0.000254844258387484 0.000720826302682836 -0.000404483035905828</v>
<v>-0.000254844257969056 0.000720826302775686 -0.000404483035905821</v>
<v>-0.000254844258296659 0.000720826302782295 -0.000404483035905782</v>
<v>-0.000252221397787766 0.000721595706494362 -0.000402046620700402</v>
<v>-0.000255250154378899 0.000719852019302473 -0.000403757105298626</v>
<v>-0.000254545195478628 0.000721166199973567 -0.00040473629032458</v>
<v>-0.000254844258303538 0.000720826302972189 -0.000404483035905899</v>
<v>-0.000254844258277249 0.00072082630275659 -0.00040448303590582</v>
<v>-0.000254844258324791 0.000720826302840337 -0.00040448303590583</v>
<v>-0.000254825961874021 0.000720815558486195 -0.000404475030464799</v>
<v>-0.000254844258157682 0.000720826302823761 -0.000404483035905872</v>
<v>-0.00025484425837847 0.000720826302951914 -0.000404483035905891</v>
<v>-0.000254844258381841 0.0007208263029608 -0.000404483035905867</v>
<v>-0.000254844258254069 0.00072082630287526 -0.000404483035905815</v>
<v>-0.000254844257734488 0.000720826302678434 -0.000404483035905816</v>
<v>-0.000254844257827547 0.000720826302941601 -0.000404483035906052</v>
<v>-0.000254844258350152 0.000720826303036588 -0.000404483035905876</v>
<v>-0.000254844258453536 0.000720826303059978 -0.000404483035905841</v>
<v>-0.000254844258423902 0.000720826303071233 -0.000404483035905811</v>
<v>-0.000254844258664659 0.000720826303023784 -0.000404483035905759</v>
<v>-0.000254844257958427 0.00072082630291698 -0.000404483035905815</v>
<v>-0.000254844258060012 0.000720826303036907 -0.000404483035905959</v>
<v>-0.000254844258335662 0.000720826303540449 -0.000404483035905934</v>
<v>-0.000254844258682467 0.00072082630346359 -0.000404483035905801</v>
<v>-0.000254844258509745 0.000720826303449571 -0.000404483035905878</v>
<v>-0.000254844258742738 0.000720826303437081 -0.00040448303590576</v>
<v>-0.000254844258127631 0.00072082630348791 -0.000404483035905876</v>
<v>-0.00025484425830046 0.000720826303435966 -0.000404483035906073</v>
<v>-0.000254805654585498 0.000720768436104233 -0.000404512354789012</v>
<v>-0.000254844258598938 0.000720826302934928 -0.000404483035905688</v>
<v>-0.000254844258501715 0.000720826302795829 -0.000404483035905743</v>
<v>-0.000254844258404126 0.000720826302926379 -0.000404483035905702</v>
<v>-0.000254844258303237 0.000720826302995213 -0.000404483035905782</v>
<v>-0.000254898744804606 0.000720962647278566 -0.000404413955419054</v>
<v>0.00011420724651645 -0.000731077448568427 -0.000378044755894942</v>
<v>0.000121787184611917 -0.000730750340671411 -0.000382188582119757</v>
<v>0.000121732958407085 -0.000730752034072273 -0.000382167131158953</v>
<v>0.000121732958709926 -0.000730752034012277 -0.000382167131158854</v>
<v>0.000121732959196225 -0.00073075203406977 -0.000382167131158929</v>
<v>0.000125959305514128 -0.000731106089068306 -0.000377681933567048</v>
<v>0.000121557162941442 -0.000730936933236893 -0.000382060666819395</v>
<v>0.000121811148208256 -0.000730657360580076 -0.000382221643631802</v>
<v>0.000121732958356889 -0.00073075203380066 -0.000382167131158889</v>
<v>0.000121732958459373 -0.000730752033844825 -0.000382167131158777</v>
<v>0.000121732958952499 -0.000730752033897894 -0.000382167131158727</v>
<v>0.000121731007848843 -0.00073075041545153 -0.00038216806314805</v>
<v>0.000121732958220205 -0.000730752034044883 -0.0003821671311588</v>
<v>0.000121732957847561 -0.000730752034023625 -0.000382167131158744</v>
<v>0.000121732958039556 -0.000730752033961931 -0.000382167131158756</v>
<v>0.000121732957933391 -0.000730752034030131 -0.00038216713115879</v>
<v>0.000121732958678155 -0.000730752034060566 -0.000382167131158806</v>
<v>0.000121732957937829 -0.000730752034092655 -0.000382167131158391</v>
<v>0.000121732958217438 -0.000730752034011873 -0.00038216713115885</v>
<v>0.000121732958163457 -0.000730752033935979 -0.000382167131158794</v>
<v>0.000121732958369923 -0.000730752033982324 -0.000382167131158823</v>
<v>0.000121732958424673 -0.000730752033924208 -0.000382167131158864</v>
<v>0.000121732958780855 -0.000730752034010708 -0.000382167131158752</v>
<v>0.000121732958291204 -0.000730752034183417 -0.000382167131158474</v>
<v>0.000121732957948837 -0.000730752034274706 -0.000382167131158813</v>
<v>0.00012173295780131 -0.000730752034109563 -0.000382167131158701</v>
<v>0.000121732957946643 -0.00073075203428326 -0.00038216713115872</v>
<v>0.000121732957745347 -0.000730752034155572 -0.000382167131158687</v>
<v>0.000121732958712518 -0.000730752034335565 -0.000382167131158793</v>
<v>0.000121732958304236 -0.000730752034190156 -0.000382167131158436</v>
<v>0.000121867152343099 -0.000730903206503965 -0.000382262880197265</v>
<v>0.000121732956448488 -0.000730752033261469 -0.000382167131158455</v>
<v>0.000121732956540899 -0.000730752033315195 -0.000382167131158498</v>
<v>0.000121732956433579 -0.000730752033290288 -0.00038216713115841</v>
<v>0.0001217462045758 -0.000730742333094503 -0.000382160987256498</v>
<v>0.00012144013292854 -0.000730427807174671 -0.000381961775272419</v>
<v>-0.00172793164135396 -0.000700535582014241 -0.00040890271743653</v>
<v>-0.00172826397083137 -0.000700095381940713 -0.000408554245115463</v>
<v>-0.00172826397117154 -0.000700095381897414 -0.000408554245115531</v>
<v>-0.00172826397149328 -0.000700095381929611 -0.000408554245115442</v>
<v>-0.00172826194045064 -0.000700094386098286 -0.000408553456930026</v>
<v>-0.0017284439998725 -0.000698721160588466 -0.00040746638080849</v>
<v>-0.00174083481358453 -0.000709571034875125 -0.000384551689245423</v>
<v>-0.00172806632511562 -0.000700059464357579 -0.000408645229618455</v>
<v>-0.00172826397199039 -0.00070009538087429 -0.000408554245115283</v>
<v>-0.00172826397268313 -0.000700095380849475 -0.000408554245115417</v>
<v>-0.00172826397215149 -0.00070009538076839 -0.000408554245115262</v>
<v>-0.00172657819649733 -0.000700646711730449 -0.000407157604464659</v>
<v>-0.00172828157058739 -0.000700222470065253 -0.00040849233323327</v>
<v>-0.00172823019339901 -0.00070003527084258 -0.000408583528098025</v>
<v>-0.00172826397168346 -0.000700095381152596 -0.000408554245115311</v>
<v>-0.00172826397191961 -0.000700095381117497 -0.000408554245115246</v>
<v>-0.00172826397211169 -0.000700095381158339 -0.000408554245115327</v>
<v>-0.00172826397170571 -0.000700095381063829 -0.000408554245115507</v>
<v>-0.00172826397184036 -0.000700095381140732 -0.000408554245115413</v>
<v>-0.00172826397142272 -0.000700095381034462 -0.000408554245115414</v>
<v>-0.00172826397142248 -0.00070009538130122 -0.000408554245115416</v>
<v>-0.00172826397175825 -0.000700095381401053 -0.000408554245115436</v>
<v>-0.00172826397212029 -0.00070009538118955 -0.000408554245115325</v>
<v>-0.00172826397167816 -0.000700095381311601 -0.000408554245115612</v>
<v>-0.00172826397157628 -0.000700095381138921 -0.000408554245115372</v>
<v>-0.0017282639714308 -0.000700095381139585 -0.000408554245115315</v>
<v>-0.0017282639714717 -0.000700095381161054 -0.000408554245115323</v>
<v>-0.00172826397177173 -0.000700095381163616 -0.000408554245115312</v>
<v>-0.00172826397185296 -0.000700095381088814 -0.000408554245115229</v>
<v>-0.00172826397196238 -0.000700095381052811 -0.000408554245115629</v>
<v>-0.00172826397155562 -0.000700095381095819 -0.000408554245115554</v>
<v>-0.00172826397154618 -0.000700095381328968 -0.00040855424511544</v>
<v>-0.00172826397170326 -0.000700095381253947 -0.00040855424511544</v>
<v>-0.00172826397165127 -0.000700095381334622 -0.000408554245115375</v>
<v>-0.00172826397218436 -0.000700095381168094 -0.000408554245115462</v>
<v>-0.00172826397254318 -0.000700095381332539 -0.000408554245115807</v>
<v>-0.00110500328035022 0.00152825316253324 -0.000410846965775316</v>
<v>-0.0011057484176426 0.00152880925425492 -0.000410206640925177</v>
<v>-0.00110574841778555 0.00152880925432933 -0.000410206640925127</v>
<v>-0.00110574841783051 0.00152880925427062 -0.000410206640925058</v>
<v>-0.00110564746037247 0.00152884910643349 -0.000410160752311956</v>
<v>-0.00110733371101429 0.00153205367407788 -0.000406470778316592</v>
<v>-0.00110610718486201 0.00153275458963284 -0.000415203897383345</v>
<v>-0.00110569373403475 0.0015288273810532 -0.000410229600780067</v>
<v>-0.00110574841760499 0.0015288092541078 -0.000410206640925002</v>
<v>-0.00110574841737877 0.0015288092540406 -0.000410206640925026</v>
<v>-0.00110574841738444 0.00152880925415733 -0.00041020664092506</v>
<v>-0.00110456360481342 0.00152790494655825 -0.000409061222918136</v>
<v>-0.00110575073604943 0.00152878963333043 -0.000410198624021149</v>
<v>-0.00110574841775534 0.00152880925428115 -0.000410206640925229</v>
<v>-0.00110574841760266 0.00152880925430669 -0.000410206640925262</v>
<v>-0.00110574841836738 0.00152880925439732 -0.000410206640925255</v>
<v>-0.00110574841756587 0.00152880925471631 -0.000410206640925206</v>
<v>-0.00110574841622163 0.00152880925486687 -0.000410206640924821</v>
<v>-0.0011057484177182 0.00152880925454404 -0.000410206640925057</v>
<v>-0.00110574841771654 0.001528809254493 -0.000410206640925037</v>
<v>-0.00110574841781244 0.00152880925455936 -0.000410206640925011</v>
<v>-0.00110574841744109 0.00152880925466791 -0.000410206640924943</v>
<v>-0.00110574841735795 0.00152880925475035 -0.000410206640925119</v>
<v>-0.0011057484165421 0.00152880925491022 -0.000410206640924609</v>
<v>-0.00110574841795496 0.00152880925448136 -0.000410206640925049</v>
<v>-0.0011057484179734 0.00152880925440144 -0.000410206640925059</v>
<v>-0.00110574841785426 0.00152880925449932 -0.000410206640924944</v>
<v>-0.00110574841759761 0.00152880925441032 -0.000410206640924982</v>
<v>-0.00110574841757272 0.00152880925456988 -0.000410206640924887</v>
<v>-0.00110574841637429 0.00152880925487153 -0.000410206640924581</v>
<v>-0.00110574841830063 0.00152880925451992 -0.000410206640925206</v>
<v>-0.00110574841835321 0.00152880925469528 -0.000410206640925192</v>
<v>-0.00110574841827144 0.00152880925476483 -0.00041020664092513</v>
<v>-0.00110574841852653 0.00152880925460468 -0.000410206640925127</v>
<v>-0.00110574841778655 0.00152880925478661 -0.000410206640925159</v>
<v>-0.00110574747778158 0.00152879622254787 -0.000410211799399787</v>
<v>0.00147295993726677 -0.00114818428505486 -0.00041129394164302</v>
<v>0.00147043080332446 -0.00114667017589189 -0.000408554242572012</v>
<v>0.0014704308033561 -0.0011466701758373 -0.000408554242572078</v>
<v>0.00147043080341472 -0.0011466701758271 -0.000408554242572088</v>
<v>0.00147046306856379 -0.0011466631783775 -0.000408541580948755</v>
<v>0.00147125465628153 -0.00114288993362499 -0.000401714098695698</v>
<v>0.00146905690054077 -0.00114507358309331 -0.000409998693964249</v>
<v>0.00147053570499568 -0.00114661362350751 -0.000408605406043928</v>
<v>0.00147043080311272 -0.00114667017577457 -0.00040855424257198</v>
<v>0.0014704308029929 -0.00114667017574502 -0.00040855424257202</v>
<v>0.00147043080324239 -0.00114667017583163 -0.000408554242571938</v>
<v>0.00147084929304866 -0.00114701739704759 -0.000408240108069455</v>
<v>0.00147043080333995 -0.00114667017565587 -0.00040855424257216</v>
<v>0.00147043080319012 -0.00114667017566418 -0.000408554242572039</v>
<v>0.00147043080353592 -0.00114667017570523 -0.000408554242572077</v>
<v>0.00147043080360915 -0.00114667017586057 -0.000408554242572083</v>
<v>0.00147043080447258 -0.0011466701755726 -0.000408554242572281</v>
<v>0.00147043080454359 -0.00114667017548054 -0.000408554242572025</v>
<v>0.00147043080332093 -0.00114667017605307 -0.000408554242572027</v>
<v>0.00147043080310779 -0.00114667017613429 -0.00040855424257196</v>
<v>0.00147043080330619 -0.00114667017600974 -0.000408554242572035</v>
<v>0.00147043080312704 -0.00114667017610711 -0.00040855424257205</v>
<v>0.00147043080364875 -0.00114667017590706 -0.000408554242572008</v>
<v>0.00147043080411641 -0.00114667017577719 -0.000408554242571933</v>
<v>0.00147043080356076 -0.00114667017629084 -0.000408554242572083</v>
<v>0.0014704308031901 -0.00114667017631322 -0.000408554242571963</v>
<v>0.00147043080338017 -0.00114667017627638 -0.00040855424257199</v>
<v>0.00147043080363397 -0.00114667017623373 -0.000408554242572047</v>
<v>0.00147043080393315 -0.00114667017608466 -0.000408554242572058</v>
<v>0.00147043080479747 -0.00114667017606762 -0.000408554242571771</v>
<v>0.0014704308037723 -0.00114667017601978 -0.000408554242572156</v>
<v>0.00147043080371029 -0.00114667017592943 -0.000408554242572134</v>
<v>0.00147043080380199 -0.00114667017595346 -0.00040855424257212</v>
<v>0.00147043080355236 -0.00114667017615933 -0.000408554242572022</v>
<v>0.00147043283227425 -0.00114666753936964 -0.000408553049855436</v>
<v>0.0014704058055825 -0.00114671484571871 -0.000408574449471773</v>
<v>0.000551536062469493 0.000465638792875423 -0.00041485074347521</v>
<v>0.000574911255543688 0.00047037188351066 -0.000384872637713058</v>
<v>0.000571975619405654 0.000470799017622214 -0.000382167129545109</v>
<v>0.000571975619387982 0.000470799017610999 -0.000382167129545138</v>
<v>0.000571975619446599 0.000470799017561826 -0.000382167129545203</v>
<v>0.000572100415994791 0.000470807439992842 -0.000382113779775184</v>
<v>0.000572181004493411 0.000470542568653976 -0.00038199615361286</v>
<v>0.000571721591618002 0.000471368361148018 -0.000382546714069841</v>
<v>0.000571977031137125 0.000470799867178929 -0.000382167695932384</v>
<v>0.000571975619613364 0.000470799017569278 -0.000382167129545189</v>
<v>0.00057197561998927 0.000470799017538697 -0.000382167129545152</v>
<v>0.000571975619535513 0.000470799017500094 -0.000382167129545063</v>
<v>0.000571975618671283 0.000470799017423085 -0.000382167129544476</v>
<v>0.000571975619493761 0.000470799017297359 -0.000382167129545131</v>
<v>0.000571975619664459 0.000470799017472741 -0.000382167129545067</v>
<v>0.000571975619253961 0.000470799017335075 -0.000382167129545002</v>
<v>0.000571975619792482 0.000470799017372298 -0.000382167129545075</v>
<v>0.000571975619420938 0.000470799017055372 -0.000382167129544852</v>
<v>0.000571975618934628 0.000470799017912915 -0.000382167129544784</v>
<v>0.000571975620125881 0.000470799017846063 -0.000382167129545233</v>
<v>0.000571975619893736 0.000470799017823067 -0.000382167129545168</v>
<v>0.000571975620066289 0.000470799017734556 -0.000382167129545153</v>
<v>0.000571975620188669 0.000470799017853508 -0.000382167129545107</v>
<v>0.000571975619594433 0.000470799017585796 -0.000382167129545184</v>
<v>0.000571975618647302 0.000470799018228663 -0.000382167129544732</v>
<v>0.000571975619411511 0.000470799018045415 -0.000382167129545127</v>
<v>0.000571975619574979 0.000470799018141985 -0.000382167129545184</v>
<v>0.000571975619294436 0.000470799018067683 -0.000382167129545126</v>
<v>0.000571975619201707 0.000470799018155567 -0.000382167129545259</v>
<v>0.00057197561852237 0.000470799017787359 -0.00038216712954524</v>
<v>0.000571873844276594 0.000470608159909514 -0.000382272247309429</v>
<v>0.000571975618446224 0.000470799018354454 -0.000382167129545038</v>
<v>0.000571975618291587 0.000470799018339685 -0.000382167129544916</v>
<v>0.000571975618305798 0.000470799018394974 -0.00038216712954486</v>
<v>0.000571975618618881 0.000470799018594814 -0.000382167129545049</v>
<v>0.000572050806124658 0.000470907054159753 -0.000382107627355121</v>
  </varray>
 </calculation>
</modeling>
