<?xml version="1.0" encoding="ISO-8859-1"?>
<modeling>
 <generator>
  <i name="program" type="string">vasp</i>
  <i name="version" type="string">5.4.1</i>
 </generator>
 <calculation>
  <varray name="forces">
<v>3.9213109808145e-06 -2.26180024887057e-06 0.00036223893730367</v>
<v>-9.69506090722847e-06 7.34040837958278e-06 0.000362237634783396</v>
<v>1.59697211010723e-09 -4.38927827417501e-09 0.000362239246445339</v>
<v>1.59657909115651e-09 -4.3892913748067e-09 0.000362239246445272</v>
<v>1.59690027867754e-09 -4.3893271239881e-09 0.000362239246445311</v>
<v>-1.38264518584341e-09 -5.48055801641908e-09 0.000362239246622979</v>
<v>-1.60950380756475e-06 4.32265852223779e-07 0.000362239407017562</v>
<v>-0.0146638781013196 -0.0236329038576321 0.000355330470174673</v>
<v>-1.26652853218499e-07 -1.70633709882496e-07 0.000362239231726507</v>
<v>1.59639852084222e-09 -4.38855636347105e-09 0.000362239246445399</v>
<v>1.59611760312421e-09 -4.38865400043034e-09 0.000362239246445419</v>
<v>1.59689427891956e-09 -4.38868353648276e-09 0.00036223924644535</v>
<v>1.59393365173344e-09 -4.38746661224343e-09 0.000362239246444979</v>
<v>-9.46137573565726e-08 2.84958424206182e-07 0.000362239267371915</v>
<v>5.54479588658586e-08 9.32013889614115e-08 0.000362239253678891</v>
<v>1.59624354515684e-09 -4.38821979776654e-09 0.000362239246445472</v>
<v>1.59654874965401e-09 -4.38848329753271e-09 0.000362239246445473</v>
<v>1.59598757300261e-09 -4.38827236560243e-09 0.000362239246445377</v>
<v>1.59473834138169e-09 -4.38791047940868e-09 0.000362239246445148</v>
<v>1.59643650196899e-09 -4.38866363000232e-09 0.000362239246445403</v>
<v>1.59654877330317e-09 -4.38857564431721e-09 0.000362239246445475</v>
<v>1.59615751267091e-09 -4.38860407392776e-09 0.000362239246445491</v>
<v>1.5966934877031e-09 -4.38875753600967e-09 0.000362239246445498</v>
<v>1.59644821928068e-09 -4.38871607252259e-09 0.000362239246445454</v>
<v>1.59434265789571e-09 -4.38816538661513e-09 0.000362239246445076</v>
<v>1.59649088458773e-09 -4.389003921003e-09 0.000362239246445444</v>
<v>1.59648523971993e-09 -4.38887641168988e-09 0.000362239246445442</v>
<v>1.5960393665097e-09 -4.38890148451564e-09 0.000362239246445493</v>
<v>1.59660326197045e-09 -4.38878771817879e-09 0.000362239246445457</v>
<v>1.59654950696551e-09 -4.38906094595796e-09 0.000362239246445408</v>
<v>-2.93052870858901e-09 1.69189523280267e-07 0.000362239235138749</v>
<v>1.59659578045674e-09 -4.38868967495086e-09 0.000362239246445379</v>
<v>1.59648790556608e-09 -4.38864325446892e-09 0.00036223924644536</v>
<v>1.59625361098093e-09 -4.38863191658734e-09 0.000362239246445447</v>
<v>1.5963733810602e-09 -4.38878479109943e-09 0.000362239246445446</v>
<v>1.596392376472e-09 -4.38881017997012e-09 0.000362239246445294</v>
<v>0.000121733138198902 0.000730749291506372 0.000381958321892756</v>
<v>0.000121668447300494 0.000730768867591047 0.000382166922589109</v>
<v>0.000121733084590112 0.00073074931178907 0.000382166924454079</v>
<v>0.000121733084280776 0.000730749311505796 0.00038216692445405</v>
<v>0.000121733084073986 0.000730749311437431 0.000382166924453877</v>
<v>0.000123574985235075 0.000729794441089615 0.000382166869842165</v>
<v>0.000121733042502689 0.000730749244546758 0.000382330955409489</v>
<v>0.000121727523033228 0.000730235169401204 0.000382166913883544</v>
<v>0.000121733083885503 0.00073074931192515 0.000382166924454151</v>
<v>0.000121733083808668 0.000730749311837414 0.000382166924454265</v>
<v>0.00012173308320497 0.000730749311662939 0.000382166924454029</v>
<v>0.000121278975098227 0.000730874289065375 0.000382166940616999</v>
<v>0.000121693497148289 0.000730828390472475 0.000382166926893906</v>
<v>0.000121794373908111 0.000730926103974801 0.000382166930164636</v>
<v>0.000121733083957221 0.000730749311799742 0.000382166924454107</v>
<v>0.00012173308368382 0.000730749311594478 0.00038216692445411</v>
<v>0.000121733083736751 0.000730749311503175 0.000382166924454126</v>
<v>0.000121733085624395 0.000730749311480483 0.000382166924454573</v>
<v>0.000121733083608055 0.000730749311566108 0.000382166924454227</v>
<v>0.000121733083669052 0.000730749311641136 0.000382166924454164</v>
<v>0.000121733083998889 0.000730749311621726 0.000382166924454156</v>
<v>0.000121733083658742 0.00073074931160926 0.000382166924454146</v>
<v>0.000121733083151941 0.000730749311348701 0.000382166924453973</v>
<v>0.000121733084809617 0.000730749311295742 0.000382166924454511</v>
<v>0.000121733083648273 0.000730749311664848 0.000382166924454123</v>
<v>0.000121733083767675 0.00073074931163161 0.000382166924454125</v>
<v>0.00012173308389123 0.000730749311535477 0.00038216692445412</v>
<v>0.000121733083767857 0.000730749311532651 0.000382166924454084</v>
<v>0.000121733082966644 0.000730749311457172 0.00038216692445392</v>
<v>0.000121733085926556 0.000730749311214585 0.000382166924454724</v>
<v>0.000121733083630392 0.000730749311472438 0.000382166924454142</v>
<v>0.000121733083678927 0.000730749311363858 0.000382166924454171</v>
<v>0.000121733083858875 0.000730749311370206 0.000382166924454171</v>
<v>0.000121733083588216 0.000730749311338504 0.000382166924454147</v>
<v>0.000121733083442915 0.000730749311382127 0.000382166924454065</v>
<v>0.000121766201819501 0.000730964531148182 0.000382166917795501</v>
<v>0.0259349535655304 -0.00454795570476537 0.00040958527144528</v>
<v>-0.00172976437406303 0.00069707599171477 0.000408554518821935</v>
<v>-0.00172826500588785 0.000700097488911008 0.000408554431294545</v>
<v>-0.00172826500560426 0.000700097488923384 0.000408554431294542</v>
<v>-0.00172826500513388 0.000700097489028443 0.000408554431294584</v>
<v>-0.00172846801960474 0.000700120979862565 0.000408554427460629</v>
<v>-0.00172837601709792 0.000700253287665324 0.000408554427884711</v>
<v>-0.00172805755905324 0.000700773981801038 0.000408554415158292</v>
<v>-0.00172826500591205 0.000700097489142007 0.000408554431294579</v>
<v>-0.00172826500550705 0.000700097489307631 0.000408554431294487</v>
<v>-0.00172826500514914 0.000700097489176868 0.000408554431294623</v>
<v>-0.00172826500538537 0.000700097489112493 0.000408554431294862</v>
<v>-0.00172826500534976 0.000700097489211957 0.000408554431294586</v>
<v>-0.00172826500550741 0.000700097489211147 0.000408554431294481</v>
<v>-0.00172826500566805 0.000700097489070716 0.000408554431294493</v>
<v>-0.00172826500543034 0.000700097489075729 0.000408554431294403</v>
<v>-0.00172826500455878 0.000700097489331432 0.000408554431294587</v>
<v>-0.00172826500495581 0.000700097489259334 0.000408554431294578</v>
<v>-0.00172826500561952 0.000700097489163588 0.000408554431294567</v>
<v>-0.00172826500566439 0.000700097489044302 0.000408554431294387</v>
<v>-0.00172826500543408 0.000700097488936331 0.000408554431294435</v>
<v>-0.00172826500538816 0.000700097489002079 0.000408554431294362</v>
<v>-0.0017282650044704 0.000700097489068092 0.000408554431294522</v>
<v>-0.00172826500526811 0.000700097488848883 0.000408554431294533</v>
<v>-0.00172826500573677 0.0007000974890503 0.000408554431294579</v>
<v>-0.00172826500563233 0.000700097489118851 0.00040855443129433</v>
<v>-0.00172826500565956 0.000700097488953527 0.000408554431294348</v>
<v>-0.00172826500549471 0.000700097489065566 0.000408554431294269</v>
<v>-0.00172826500504797 0.000700097489050402 0.00040855443129449</v>
<v>-0.00172826250101285 0.000700110250212438 0.000408554431494213</v>
<v>-0.00172818211805444 0.000702577665785784 0.00040855467654607</v>
<v>-0.00172841299410722 0.000700166717638444 0.000408554434208938</v>
<v>-0.00172826500597711 0.000700097488896656 0.000408554431294317</v>
<v>-0.00172826500547507 0.00070009748915556 0.000408554431294302</v>
<v>-0.00172826500562503 0.000700097489090208 0.000408554431294395</v>
<v>-0.00172783576399391 0.000700039074782192 0.000408554439298598</v>
<v>0.00187686513248841 -0.000193202161571537 0.000410266946729601</v>
<v>0.0018768650028017 -0.000193202025475105 0.000409673188137002</v>
<v>0.00187686268591408 -0.000193202576682427 0.000410206448476306</v>
<v>0.00187686512918291 -0.000193202165578155 0.000410206448454609</v>
<v>0.00187686512879826 -0.000193202165623137 0.000410206448454561</v>
<v>0.0018768605353472 -0.000193201228976128 0.000410206448413547</v>
<v>0.0018768606275561 -0.000193196947062213 0.00041020644839454</v>
<v>0.00187691395117156 -0.000192464074276753 0.000410206438826671</v>
<v>0.00187686664756906 -0.00019320031658925 0.000410206448433689</v>
<v>0.00187686512886682 -0.000193202165427712 0.000410206448454677</v>
<v>0.00187686512869369 -0.000193202165511919 0.000410206448454755</v>
<v>0.00187686512901322 -0.000193202165442441 0.000410206448454707</v>
<v>0.00187686512904717 -0.000193202165632067 0.000410206448454837</v>
<v>0.00187686512885786 -0.000193202165757894 0.000410206448454603</v>
<v>0.00187686512908363 -0.000193202165844442 0.000410206448454619</v>
<v>0.00187686512877703 -0.000193202165662919 0.00041020644845461</v>
<v>0.00187686512854756 -0.000193202165830097 0.000410206448454679</v>
<v>0.00187686512846213 -0.000193202165846163 0.00041020644845459</v>
<v>0.00187686512919444 -0.000193202165512219 0.000410206448454971</v>
<v>0.00187686512907353 -0.000193202165528001 0.000410206448454758</v>
<v>0.00187686512900448 -0.000193202165503682 0.000410206448454693</v>
<v>0.00187686512887912 -0.000193202165486572 0.00041020644845466</v>
<v>0.00187686512845708 -0.000193202165428213 0.000410206448454792</v>
<v>0.00187686512841891 -0.000193202165591921 0.000410206448454589</v>
<v>0.00187686259275027 -0.000193194876105307 0.000410206448522707</v>
<v>0.00187686512922265 -0.000193202165629984 0.000410206448454664</v>
<v>0.00187686512913683 -0.000193202165536979 0.000410206448454605</v>
<v>0.00187686512924301 -0.000193202165496577 0.000410206448454639</v>
<v>0.00187686512896574 -0.000193202165837394 0.000410206448454655</v>
<v>0.00187686674048033 -0.000193197378673382 0.000410206448498898</v>
<v>0.00187686498194012 -0.000193202187984798 0.000409788607060061</v>
<v>0.0018761973692692 -0.00019287427263685 0.000410206458153323</v>
<v>0.00187686512819278 -0.000193202164666506 0.000410206448454549</v>
<v>0.00187686512788109 -0.000193202164691875 0.000410206448454555</v>
<v>0.00187686512835015 -0.000193202164814662 0.000410206448454598</v>
<v>0.00187691394785563 -0.000193287986854723 0.000410206448447118</v>
<v>0.000255177760474679 -0.00184985876817523 0.000408554303447111</v>
<v>0.0200381309486744 0.00669648850813142 0.000400624653553824</v>
<v>0.000257746260913958 -0.00184678052217453 0.000408554484415434</v>
<v>0.000257826414841757 -0.00184676411746857 0.000408554482964438</v>
<v>0.000257826415298593 -0.00184676411750742 0.000408554482964309</v>
<v>0.000257826415489061 -0.00184676411735831 0.000408554482964222</v>
<v>0.000257814709206716 -0.00184675400028311 0.00040855448272687</v>
<v>0.000257660913490421 -0.0018448103670444 0.000408554431022223</v>
<v>0.000257907884072996 -0.00184669943934849 0.00040855448104062</v>
<v>0.000257826414894148 -0.00184676411765011 0.000408554482964313</v>
<v>0.00025782641504018 -0.00184676411750105 0.000408554482964181</v>
<v>0.000257826414530285 -0.00184676411750529 0.000408554482964299</v>
<v>0.000257826413139872 -0.00184676411727203 0.000408554482964154</v>
<v>0.000257826415134467 -0.00184676411748564 0.000408554482964208</v>
<v>0.000257826414908382 -0.00184676411746147 0.000408554482964146</v>
<v>0.000257826414696723 -0.00184676411742314 0.000408554482964363</v>
<v>0.000257826415080433 -0.00184676411739445 0.00040855448296413</v>
<v>0.000257826414938339 -0.00184676411737322 0.000408554482964105</v>
<v>0.000257826413102347 -0.00184676411727514 0.000408554482964204</v>
<v>0.000257826415058651 -0.00184676411753484 0.000408554482964141</v>
<v>0.000257826414982266 -0.00184676411740916 0.000408554482964243</v>
<v>0.000257826415094602 -0.00184676411752917 0.000408554482964196</v>
<v>0.000257826415071541 -0.00184676411741129 0.000408554482964148</v>
<v>0.000257826415248305 -0.00184676411740194 0.000408554482964176</v>
<v>0.000257826413300855 -0.00184676411726914 0.000408554482964105</v>
<v>0.000257826414604803 -0.00184676411741995 0.000408554482964347</v>
<v>0.000257826414763332 -0.00184676411753905 0.000408554482964251</v>
<v>0.000257826414453064 -0.00184676411754356 0.000408554482964353</v>
<v>0.000257826414970451 -0.00184676411740072 0.000408554482964237</v>
<v>0.000257826414992344 -0.00184676411749131 0.000408554482964485</v>
<v>0.00026121828573733 -0.00183754083797183 0.000408554835775289</v>
<v>0.000257133372058887 -0.00184621514831454 0.000408554503260747</v>
<v>0.000257826414482132 -0.00184676411708651 0.000408554482964509</v>
<v>0.000257826414220078 -0.00184676411709517 0.000408554482964503</v>
<v>0.00025782641475936 -0.00184676411724773 0.000408554482964403</v>
<v>0.000257840211775967 -0.0018467669390608 0.000408554483143535</v>
<v>-0.0331942461589391 -0.115577474011973 0.000379058392897677</v>
<v>-0.000694013072436098 -0.000260083624742773 0.000382166866334796</v>
<v>-0.000693712403478428 -0.00025994715200884 0.000382166878068697</v>
<v>-0.000693712403678912 -0.000259947152015767 0.000382166878068734</v>
<v>-0.000693712404014232 -0.000259947152011294 0.00038216687806883</v>
<v>-0.000697452550354527 -0.000259900819524428 0.000382167064661664</v>
<v>-0.000694032819259269 -0.000258931339691288 0.000382166920851236</v>
<v>-0.000693516520990908 -0.000259728020057638 0.0003821668880381</v>
<v>-0.000693712403567395 -0.000259947152089514 0.000382166878068731</v>
<v>-0.00069371240402866 -0.00025994715210327 0.000382166878068756</v>
<v>-0.000693712403207932 -0.000259947152292624 0.000382166878068587</v>
<v>-0.000693712401785174 -0.000259947152948276 0.000382166878067877</v>
<v>-0.000693712403759378 -0.000259947151950745 0.000382166878068708</v>
<v>-0.000693712403612829 -0.000259947151947048 0.000382166878068691</v>
<v>-0.000693712403317358 -0.000259947152070147 0.000382166878068506</v>
<v>-0.000693712404110063 -0.000259947151941723 0.000382166878068742</v>
<v>-0.000693712403179531 -0.000259947151922413 0.000382166878068647</v>
<v>-0.000693712401443947 -0.000259947152644269 0.000382166878067786</v>
<v>-0.000693712403979184 -0.000259947151784365 0.000382166878068859</v>
<v>-0.000693712403933058 -0.000259947151846511 0.000382166878068808</v>
<v>-0.000693712403808749 -0.000259947151722679 0.000382166878068854</v>
<v>-0.000693712403896024 -0.000259947151834659 0.000382166878068814</v>
<v>-0.000693712404190731 -0.000259947151908503 0.000382166878068852</v>
<v>-0.000693712401726221 -0.000259947152479595 0.000382166878067961</v>
<v>-0.000693712403458905 -0.00025994715196278 0.000382166878068811</v>
<v>-0.000693712403455608 -0.000259947151748577 0.000382166878068881</v>
<v>-0.000693712403008754 -0.000259947151887544 0.000382166878068771</v>
<v>-0.000693712403620493 -0.000259947151827062 0.000382166878068818</v>
<v>-0.000693712403686281 -0.000259947152019257 0.000382166878068714</v>
<v>-0.000693712401749258 -0.000259947152757095 0.000382166878067931</v>
<v>-0.000695825355062627 -0.00025779278340648 0.000382166738315117</v>
<v>-0.000693712403733921 -0.00025994715137748 0.000382166878068394</v>
<v>-0.000693712403447322 -0.000259947151386405 0.000382166878068407</v>
<v>-0.000693712403972585 -0.000259947151261411 0.000382166878068554</v>
<v>-0.000693712744437503 -0.00025994725492467 0.000382166878077156</v>
<v>-0.000689687623016078 -0.000255484422244684 0.000382166546358364</v>
<v>-0.318896616289063 0.570888921085516 0.000493578016225791</v>
<v>0.000750612392322322 0.000139435148407189 0.000404483285781813</v>
<v>0.000751673501663345 0.000139708796480217 0.000404483285781824</v>
<v>0.000751673501449009 0.000139708796625382 0.000404483285781868</v>
<v>0.000751673501716273 0.000139708796865175 0.000404483285781901</v>
<v>0.000750615701502241 0.000139438385725455 0.000404483285781803</v>
<v>0.000750620130754292 0.000141533288382227 0.000404483285781894</v>
<v>0.000752436584599985 0.000140489673595136 0.000404483285781808</v>
<v>0.000751673501781023 0.000139708796731439 0.00040448328578177</v>
<v>0.000751673501466826 0.000139708796794642 0.00040448328578181</v>
<v>0.000751673501739915 0.000139708796773679 0.00040448328578181</v>
<v>0.000751673500671856 0.000139708796959452 0.000404483285782023</v>
<v>0.000751673501624907 0.00013970879681353 0.000404483285781839</v>
<v>0.000751673501612169 0.000139708796809845 0.000404483285781732</v>
<v>0.000751673501693282 0.000139708796676303 0.000404483285781801</v>
<v>0.000751673501769975 0.000139708796863882 0.000404483285781865</v>
<v>0.000751673501818585 0.000139708796768768 0.000404483285782076</v>
<v>0.000751673501753198 0.000139708796745479 0.00040448328578203</v>
<v>0.00075167350176443 0.000139708796746685 0.000404483285781852</v>
<v>0.000751673501871964 0.000139708796644518 0.000404483285781728</v>
<v>0.000751673501785678 0.000139708796584697 0.000404483285781794</v>
<v>0.000751673501485803 0.00013970879668476 0.000404483285781819</v>
<v>0.000751673502232211 0.000139708796725498 0.000404483285781977</v>
<v>0.000751673501413726 0.000139708796665267 0.000404483285781842</v>
<v>0.000751673501666948 0.000139708796495571 0.000404483285781932</v>
<v>0.000751673501607181 0.000139708796324511 0.000404483285781774</v>
<v>0.000751673501530864 0.000139708796366291 0.000404483285781843</v>
<v>0.000751673501593057 0.000139708796552304 0.000404483285781985</v>
<v>0.000751673501973783 0.000139708796480943 0.000404483285781968</v>
<v>0.000751673501875189 0.000139708796466084 0.000404483285782149</v>
<v>0.000750607905396746 0.000141554462575699 0.000404483285781846</v>
<v>0.00075167350131216 0.000139708796504638 0.000404483285781779</v>
<v>0.000751673501224252 0.000139708796497376 0.000404483285781842</v>
<v>0.000751673501025772 0.000139708796686464 0.000404483285781764</v>
<v>0.000751673501293089 0.000139708796389435 0.00040448328578179</v>
<v>0.0007524410422938 0.000140490920215969 0.000404483285781867</v>
<v>0.197940108817567 -0.0822784454564342 0.000422986637669131</v>
<v>-0.0011104854225239 -0.00153071683386794 0.0004102065450216</v>
<v>-0.00110574748898439 -0.0015288098226321 0.000410206447546968</v>
<v>-0.00110574748866359 -0.00152880982256941 0.00041020644754697</v>
<v>-0.00110574748885776 -0.00152880982254795 0.000410206447547133</v>
<v>-0.00110607457253113 -0.00152884703927225 0.000410206443590279</v>
<v>-0.00110627989618351 -0.00152815608449091 0.000410206436551919</v>
<v>-0.00110480399453221 -0.00152693753340602 0.000410206413750988</v>
<v>-0.00110574748889238 -0.0015288098228141 0.000410206447547123</v>
<v>-0.00110574748852465 -0.00152880982272347 0.00041020644754692</v>
<v>-0.00110574748856673 -0.00152880982256163 0.00041020644754708</v>
<v>-0.00110574748801014 -0.0015288098229646 0.000410206447547102</v>
<v>-0.00110574748878191 -0.00152880982260639 0.000410206447547109</v>
<v>-0.0011057474886857 -0.00152880982268318 0.000410206447546998</v>
<v>-0.00110574748886858 -0.00152880982256262 0.000410206447546992</v>
<v>-0.0011057474886926 -0.00152880982267549 0.000410206447546868</v>
<v>-0.00110574748920337 -0.00152880982263247 0.000410206447546906</v>
<v>-0.0011057474888033 -0.0015288098225733 0.000410206447547118</v>
<v>-0.00110574748881511 -0.00152880982267935 0.000410206447547089</v>
<v>-0.00110574748866946 -0.00152880982257398 0.00041020644754703</v>
<v>-0.00110574748897923 -0.00152880982267504 0.000410206447547008</v>
<v>-0.00110574748878347 -0.00152880982267281 0.00041020644754694</v>
<v>-0.00110574748906868 -0.00152880982238275 0.000410206447546941</v>
<v>-0.00110574748843122 -0.00152880982265395 0.000410206447547151</v>
<v>-0.00110574748861037 -0.00152880982263975 0.000410206447547258</v>
<v>-0.00110574748854038 -0.00152880982271442 0.000410206447547201</v>
<v>-0.00110574748880932 -0.00152880982263318 0.000410206447547178</v>
<v>-0.0011057474886837 -0.00152880982271525 0.000410206447547055</v>
<v>-0.00110574748901457 -0.00152880982253372 0.000410206447547249</v>
<v>-0.0011057474883723 -0.00152880982255276 0.000410206447547215</v>
<v>-0.00110741154215615 -0.00152349019815171 0.000410206547390643</v>
<v>-0.00110575332155185 -0.00152880604950277 0.000410206447608115</v>
<v>-0.00110574748825992 -0.00152880982263356 0.000410206447547046</v>
<v>-0.00110574748830922 -0.00152880982261988 0.000410206447547009</v>
<v>-0.00110574748846646 -0.00152880982247722 0.000410206447547163</v>
<v>-0.00110539996221444 -0.00152863898637125 0.000410206452611944</v>
<v>-0.00931197984584738 -0.00828735176811718 0.000409625239505139</v>
<v>0.00146815110765453 0.00114348559010681 0.000408554614062342</v>
<v>0.00147043144221094 0.00114666874020629 0.000408554447385141</v>
<v>0.00147043144209153 0.00114666874013439 0.000408554447385149</v>
<v>0.00147043144227088 0.00114666874018306 0.00040855444738501</v>
<v>0.00147035158945283 0.00114665253744412 0.000408554445940707</v>
<v>0.001469742490127 0.00114721532570167 0.000408554427235397</v>
<v>0.0014737849399992 0.00115585363284122 0.00040855409702579</v>
<v>0.00147044541019947 0.00114666605807483 0.000408554447202316</v>
<v>0.00147043144254574 0.00114666873985455 0.000408554447385113</v>
<v>0.0014704314419485 0.0011466687399976 0.000408554447384981</v>
<v>0.00147043144316724 0.00114666873998931 0.000408554447385277</v>
<v>0.00147043144238874 0.00114666873977787 0.000408554447385236</v>
<v>0.00147043144229883 0.00114666873984091 0.0004085544473851</v>
<v>0.00147043144236802 0.00114666873994697 0.000408554447385104</v>
<v>0.00147043144259037 0.00114666874004936 0.000408554447385112</v>
<v>0.00147043144221018 0.0011466687400893 0.000408554447384941</v>
<v>0.00147043144209322 0.00114666873999727 0.000408554447385179</v>
<v>0.00147043144225163 0.00114666873995017 0.000408554447385224</v>
<v>0.00147043144219346 0.00114666874004631 0.000408554447385122</v>
<v>0.00147043144244418 0.00114666874005652 0.000408554447385193</v>
<v>0.00147043144281533 0.00114666874006717 0.000408554447385219</v>
<v>0.00147043144205854 0.0011466687401647 0.00040855444738497</v>
<v>0.00147043144197355 0.00114666874029402 0.000408554447385173</v>
<v>0.00147043144217027 0.00114666874014457 0.00040855444738516</v>
<v>0.00147043144230774 0.00114666874046269 0.000408554447385023</v>
<v>0.00147043144214798 0.00114666874044427 0.000408554447384951</v>
<v>0.001470431442339 0.00114666874038422 0.000408554447384919</v>
<v>0.00147043144218195 0.00114666874035769 0.000408554447384943</v>
<v>0.00147043144199027 0.00114666874026244 0.000408554447385142</v>
<v>0.00147026555013786 0.00114864312605223 0.000408554499949217</v>
<v>0.00147041907151027 0.00114667942022498 0.000408554447636118</v>
<v>0.00147043144225259 0.00114666874005968 0.000408554447384995</v>
<v>0.00147043144251585 0.00114666873996193 0.000408554447384963</v>
<v>0.00147043144212492 0.0011466687401673 0.00040855444738497</v>
<v>0.00147051314349194 0.00114673331830112 0.000408554449311517</v>
<v>-0.000771111946410441 0.00172200880037976 0.00041024010687057</v>
<v>-0.000771111824221069 0.001722008944657 0.000410948295632669</v>
<v>-0.000771161385793298 0.00172200922057743 0.000410206422524418</v>
<v>-0.000771111946509386 0.00172200880383193 0.000410206422042971</v>
<v>-0.000771111946723268 0.00172200880392394 0.000410206422042984</v>
<v>-0.000771111946185919 0.00172200880392171 0.000410206422042901</v>
<v>-0.000771312557425352 0.00172214751992006 0.00041020641941124</v>
<v>-0.000771222724346782 0.00173165644840838 0.000410206228378469</v>
<v>-0.000770992298832498 0.00172203607620871 0.000410206420717878</v>
<v>-0.000771111946908184 0.00172200880385204 0.000410206422042919</v>
<v>-0.000771111946655826 0.00172200880353307 0.000410206422042909</v>
<v>-0.000771111947170922 0.00172200880374036 0.000410206422042845</v>
<v>-0.000771111947562297 0.00172200880304385 0.000410206422042326</v>
<v>-0.000771111946517264 0.00172200880379255 0.000410206422042897</v>
<v>-0.000771111946501294 0.00172200880374445 0.000410206422042891</v>
<v>-0.000771111946584707 0.00172200880365749 0.000410206422042898</v>
<v>-0.000771111946317521 0.00172200880396121 0.000410206422042961</v>
<v>-0.000771111946703676 0.00172200880374294 0.000410206422042714</v>
<v>-0.00077111194761903 0.00172200880268503 0.000410206422042304</v>
<v>-0.000771111946513323 0.00172200880346927 0.000410206422042768</v>
<v>-0.000771111946674579 0.00172200880342412 0.000410206422042791</v>
<v>-0.000771111947026047 0.00172200880338055 0.000410206422042865</v>
<v>-0.00077111194679064 0.00172200880329201 0.000410206422042783</v>
<v>-0.000771111945936943 0.00172200880356924 0.000410206422042598</v>
<v>-0.000771111947634573 0.00172200880298234 0.000410206422042274</v>
<v>-0.000771111946701136 0.00172200880342284 0.000410206422042899</v>
<v>-0.000771111946354964 0.00172200880349089 0.000410206422042868</v>
<v>-0.000771111946811919 0.00172200880350083 0.000410206422042879</v>
<v>-0.000771111946698017 0.00172200880355361 0.000410206422042778</v>
<v>-0.000771111946967556 0.00172200880354813 0.000410206422042731</v>
<v>-0.000770658356450959 0.00172453068019651 0.000410206463730289</v>
<v>-0.000771297733468466 0.00172219268382157 0.0004102064248676</v>
<v>-0.000771111946516371 0.00172200880348696 0.000410206422043</v>
<v>-0.000771111946734304 0.00172200880352268 0.00041020642204301</v>
<v>-0.00077111194665067 0.00172200880353144 0.000410206422043059</v>
<v>-0.000771096705720629 0.001722018530533 0.000410206422216881</v>
<v>-0.000935100000031097 -0.0231493929975673 0.000389825357230287</v>
<v>-0.000255047559806529 -0.000720800726692035 0.000404483273732977</v>
<v>-0.000254843040068681 -0.000720824114814739 0.000404483273732932</v>
<v>-0.000254843040346725 -0.000720824114677039 0.000404483273732952</v>
<v>-0.000254843040233769 -0.000720824114690773 0.000404483273733013</v>
<v>-0.00025637090175681 -0.000723843528286438 0.000404483273732855</v>
<v>-0.000255039349803055 -0.000717557557657342 0.000404483273733003</v>
<v>-0.000254411998390401 -0.000720879744327336 0.000404483273732979</v>
<v>-0.00025484303985592 -0.000720824114748718 0.000404483273732919</v>
<v>-0.000254843039399692 -0.000720824114595007 0.000404483273733097</v>
<v>-0.000254843039822266 -0.000720824114628224 0.000404483273732974</v>
<v>-0.000254989182897096 -0.000720755589702913 0.00040448327373266</v>
<v>-0.000254843039653296 -0.000720824114737709 0.000404483273733128</v>
<v>-0.000254840656894536 -0.000720811897114934 0.000404483273733066</v>
<v>-0.000254843039431989 -0.000720824114729676 0.000404483273733049</v>
<v>-0.000254843040057885 -0.000720824114855507 0.000404483273733091</v>
<v>-0.000254843039334411 -0.000720824114725819 0.000404483273733074</v>
<v>-0.000254843038452829 -0.000720824113984428 0.000404483273732898</v>
<v>-0.000254843039748774 -0.00072082411431496 0.000404483273733044</v>
<v>-0.000254843039592911 -0.000720824114186914 0.000404483273732966</v>
<v>-0.000254843039808532 -0.000720824114165223 0.000404483273732944</v>
<v>-0.000254843039323012 -0.000720824114180366 0.000404483273733082</v>
<v>-0.000254843040097292 -0.000720824114387609 0.000404483273733014</v>
<v>-0.00025484303851143 -0.000720824113524791 0.000404483273732915</v>
<v>-0.000254843039757021 -0.000720824114173498 0.000404483273732987</v>
<v>-0.000254843040086602 -0.000720824114237598 0.000404483273732913</v>
<v>-0.000254843039957663 -0.00072082411419201 0.000404483273732913</v>
<v>-0.000254843039891092 -0.000720824114198303 0.000404483273732905</v>
<v>-0.000254843039755284 -0.000720824114182625 0.000404483273732861</v>
<v>-0.000254843039467642 -0.000720824113393078 0.000404483273732707</v>
<v>-0.000254955741627061 -0.000720665993918302 0.000404483273733111</v>
<v>-0.000254843039842537 -0.000720824114281872 0.000404483273732996</v>
<v>-0.000254843039839881 -0.000720824114190083 0.000404483273733006</v>
<v>-0.00025484303984166 -0.000720824114238784 0.000404483273733016</v>
<v>-0.000254843039652841 -0.000720824114188284 0.000404483273732999</v>
<v>-0.000254633741838652 -0.000720145435143331 0.000404483273733046</v>
<v>0.117744297832766 -0.315109282910204 0.000404508611432796</v>
<v>-7.26237386385366e-07 1.93442570408531e-08 0.000424278466965864</v>
<v>-6.256771212243e-10 3.0498272796109e-09 0.000424278422390154</v>
<v>-6.25410667698389e-10 3.04978065024386e-09 0.000424278422390134</v>
<v>-6.25418834342834e-10 3.04982680950083e-09 0.000424278422390164</v>
<v>-8.07154258326837e-07 -6.25581874406922e-07 0.000424278356220581</v>
<v>-5.83965259613978e-06 8.81741425316893e-06 0.000424277488702188</v>
<v>1.83659753833898e-06 8.56376046010564e-07 0.000424278277380219</v>
<v>-6.25726351336542e-10 3.04971652364947e-09 0.000424278422390177</v>
<v>-6.25867794463081e-10 3.04974058952247e-09 0.000424278422390125</v>
<v>-6.25776113436297e-10 3.04969142897026e-09 0.000424278422390202</v>
<v>-6.25396592152105e-10 3.04986333410362e-09 0.00042427842239031</v>
<v>-6.26081259969338e-10 3.0494774095214e-09 0.000424278422390189</v>
<v>-3.85156976637912e-10 9.00228225244455e-09 0.000424278422161197</v>
<v>-6.26187459498498e-10 3.04959260408497e-09 0.000424278422390191</v>
<v>-6.26056568112316e-10 3.04944409356835e-09 0.000424278422390061</v>
<v>-6.26211682999028e-10 3.04957705743854e-09 0.000424278422390237</v>
<v>-6.26118469571058e-10 3.04959547545169e-09 0.0004242784223903</v>
<v>-6.25916170889779e-10 3.04974044000421e-09 0.000424278422390225</v>
<v>-6.26035179920905e-10 3.04964621688188e-09 0.00042427842239021</v>
<v>-6.25764112761697e-10 3.04978395257121e-09 0.00042427842239021</v>
<v>-6.25915284156397e-10 3.04974700969678e-09 0.000424278422390076</v>
<v>-6.25787540425751e-10 3.04972981945788e-09 0.000424278422390427</v>
<v>-6.25733838008347e-10 3.04983968201639e-09 0.000424278422390288</v>
<v>-6.26153164257418e-10 3.0495703557884e-09 0.000424278422390144</v>
<v>-6.25948156482711e-10 3.0496404013671e-09 0.000424278422390011</v>
<v>-6.25918709760689e-10 3.04976972754243e-09 0.000424278422390128</v>
<v>-6.25883762834693e-10 3.04960641221763e-09 0.000424278422390199</v>
<v>-6.25802843519287e-10 3.0496885039351e-09 0.000424278422390251</v>
<v>-6.25545587551457e-10 3.04971548188704e-09 0.000424278422390286</v>
<v>-2.89991561763141e-07 5.50211072667794e-07 0.000424278455426089</v>
<v>-6.25881454243858e-10 3.049803270221e-09 0.000424278422390268</v>
<v>-6.25897111596451e-10 3.04973101633577e-09 0.000424278422390357</v>
<v>-6.25612127485014e-10 3.04968238076103e-09 0.000424278422390137</v>
<v>-6.2558537682251e-10 3.04981265930723e-09 0.000424278422390214</v>
<v>2.68487134778145e-07 4.6565454566317e-07 0.000424278452728882</v>
<v>0.0135892020728814 -0.00690881166628578 0.000385648141487852</v>
<v>-0.000498455715114173 0.000581549274126485 0.000404483251914523</v>
<v>-0.000496830669359904 0.000581110940419238 0.000404483251914532</v>
<v>-0.000496830669266646 0.00058111094037816 0.000404483251914634</v>
<v>-0.000496830669980131 0.000581110940478522 0.000404483251914568</v>
<v>-0.000496960200035831 0.00058094480566269 0.000404483251914721</v>
<v>-0.000506448845527563 0.000588412975771114 0.000404483251914767</v>
<v>-0.000492848314292038 0.000578942406647276 0.000404483251914635</v>
<v>-0.000496833664263704 0.000581109838412868 0.000404483251914701</v>
<v>-0.00049683067030622 0.000581110941519623 0.000404483251914662</v>
<v>-0.000496830670374822 0.000581110941454964 0.000404483251914601</v>
<v>-0.000496830670637253 0.000581110941478328 0.000404483251914993</v>
<v>-0.000496830670018106 0.000581110941496734 0.000404483251914641</v>
<v>-0.000496835260909567 0.000581282264060815 0.000404483251914447</v>
<v>-0.000496830670152338 0.000581110941727727 0.000404483251914495</v>
<v>-0.00049683066946398 0.000581110941575742 0.00040448325191444</v>
<v>-0.000496830670467578 0.00058111094178723 0.000404483251914548</v>
<v>-0.000496830670391343 0.000581110941679449 0.00040448325191451</v>
<v>-0.000496830670189878 0.000581110941501772 0.000404483251914747</v>
<v>-0.000496830670068104 0.000581110941676486 0.000404483251914567</v>
<v>-0.000496830670042132 0.000581110941697099 0.000404483251914647</v>
<v>-0.000496830670007274 0.000581110941557065 0.000404483251914648</v>
<v>-0.000496830670284559 0.000581110941752141 0.000404483251914759</v>
<v>-0.000496830670891417 0.000581110941706346 0.00040448325191468</v>
<v>-0.00049683066975084 0.000581110941502311 0.000404483251914648</v>
<v>-0.000496830669765617 0.000581110941643308 0.000404483251914556</v>
<v>-0.000496830669901261 0.000581110941496486 0.000404483251914628</v>
<v>-0.000496830669856576 0.000581110941548675 0.000404483251914646</v>
<v>-0.000496830670068332 0.000581110941498859 0.000404483251914689</v>
<v>-0.00049683066995545 0.000581110941585709 0.00040448325191456</v>
<v>-0.000496927983025406 0.000581403911648883 0.000404483251914823</v>
<v>-0.000496830670292208 0.000581110941686275 0.00040448325191472</v>
<v>-0.000496830670257249 0.000581110941675868 0.000404483251914741</v>
<v>-0.000496830670175679 0.000581110941707643 0.000404483251914738</v>
<v>-0.000496830671011799 0.000581110941694115 0.000404483251914871</v>
<v>-0.000496776283757192 0.000581209176671226 0.000404483251914793</v>
<v>0.00057198011045731 -0.000470795304750027 0.000382551071707018</v>
<v>0.000563606938483247 -0.00046811396110674 0.000382166424481889</v>
<v>0.000571980011973172 -0.000470795371394384 0.000382166923311756</v>
<v>0.000571980012092355 -0.000470795371320887 0.000382166923311732</v>
<v>0.000571980012392616 -0.000470795371505397 0.000382166923311703</v>
<v>0.000571913989430794 -0.000470828403024041 0.00038216692551877</v>
<v>0.000569593543819294 -0.000469406743471416 0.000382167050722779</v>
<v>0.00057197991894417 -0.00047079535338336 0.000381942393383722</v>
<v>0.000571960290826242 -0.000470821796719358 0.000382166922433055</v>
<v>0.000571980012198993 -0.000470795371252586 0.000382166923311756</v>
<v>0.000571980012530851 -0.000470795371272371 0.000382166923311634</v>
<v>0.000571980012127519 -0.000470795371392361 0.000382166923311959</v>
<v>0.000571980011792477 -0.000470795371377772 0.000382166923311667</v>
<v>0.000571964085861902 -0.000470712823327002 0.000382166925631225</v>
<v>0.000571980012159937 -0.000470795371603004 0.000382166923311871</v>
<v>0.000571980011595175 -0.000470795371424714 0.000382166923311977</v>
<v>0.000571980012652254 -0.000470795371633142 0.000382166923311957</v>
<v>0.000571980012575062 -0.000470795371557565 0.000382166923311993</v>
<v>0.000571980011919513 -0.00047079537146461 0.000382166923311792</v>
<v>0.000571980012057245 -0.000470795371418604 0.000382166923311975</v>
<v>0.000571980011703703 -0.000470795371465564 0.0003821669233118</v>
<v>0.000571980011802028 -0.000470795371349228 0.000382166923311911</v>
<v>0.000571980012128784 -0.000470795371599935 0.000382166923311752</v>
<v>0.000571980012726376 -0.000470795371542194 0.000382166923311958</v>
<v>0.000571980011857077 -0.000470795371400597 0.000382166923311818</v>
<v>0.000571980011941134 -0.000470795371433307 0.000382166923311954</v>
<v>0.000571980012068806 -0.000470795371591013 0.000382166923311931</v>
<v>0.000571980012358439 -0.000470795371439992 0.00038216692331185</v>
<v>0.00057198001204985 -0.000470795371542195 0.000382166923311853</v>
<v>0.000571980012603018 -0.00047079537146168 0.000382166923311961</v>
<v>0.000571896739434793 -0.000470218686915848 0.000382166903238068</v>
<v>0.000571980012048621 -0.00047079537139334 0.000382166923311782</v>
<v>0.000571980012169157 -0.000470795371342537 0.000382166923311759</v>
<v>0.000571980012083651 -0.000470795371353484 0.000382166923311868</v>
<v>0.000571980012645174 -0.000470795371458289 0.000382166923311819</v>
<v>0.000572004335824493 -0.000470763069909756 0.000382166922197491</v>
<v>1.72316365499442e-06 2.57001254116204e-07 -0.000360870947346289</v>
<v>-1.90128967405596e-06 1.38368547652443e-06 -0.000360221058758592</v>
<v>2.59147414638505e-09 -2.49610043745463e-09 -0.000362239031958474</v>
<v>2.59168619898276e-09 -2.49600767832092e-09 -0.000362239031958399</v>
<v>2.59167887151079e-09 -2.49603993029979e-09 -0.000362239031958446</v>
<v>2.59094738621745e-09 -2.49606354530731e-09 -0.000362239031958649</v>
<v>-5.44570524442685e-07 1.35445657125418e-07 -0.000362580996737817</v>
<v>2.44159828129419e-06 -3.81591561418788e-06 -0.000362673010201418</v>
<v>-5.5629130964737e-08 -6.53387669972494e-08 -0.000362200630929502</v>
<v>2.58920131770415e-09 -2.49521448945564e-09 -0.000362239031958755</v>
<v>2.58907123478191e-09 -2.49530512680569e-09 -0.000362239031958796</v>
<v>2.58849959576622e-09 -2.49518543939684e-09 -0.000362239031958751</v>
<v>2.59078162482412e-09 -2.49529792098122e-09 -0.000362239031958348</v>
<v>-2.86138968704657e-08 9.00820209594764e-08 -0.000362279711543272</v>
<v>1.58134613202054e-08 2.3543248333731e-08 -0.000362250514420734</v>
<v>2.58929225493558e-09 -2.49527413230482e-09 -0.000362239031958604</v>
<v>2.58916003832387e-09 -2.49527526426618e-09 -0.000362239031958721</v>
<v>2.58883969058051e-09 -2.49531316914636e-09 -0.000362239031958802</v>
<v>2.59060862518867e-09 -2.49524216133085e-09 -0.000362239031958561</v>
<v>2.58943684945884e-09 -2.49512308267441e-09 -0.000362239031958668</v>
<v>2.58962418513818e-09 -2.49516361570139e-09 -0.000362239031958699</v>
<v>2.58941683960429e-09 -2.49531505445876e-09 -0.000362239031958677</v>
<v>2.58938915680581e-09 -2.49515172037726e-09 -0.000362239031958694</v>
<v>2.58871171178975e-09 -2.49517393162077e-09 -0.000362239031958908</v>
<v>2.5905942478005e-09 -2.49535868227305e-09 -0.000362239031958408</v>
<v>2.58922675270765e-09 -2.49535186388821e-09 -0.00036223903195872</v>
<v>2.58929166493983e-09 -2.49550844040192e-09 -0.000362239031958705</v>
<v>2.58901944009734e-09 -2.4953656498916e-09 -0.000362239031958747</v>
<v>2.58899196299906e-09 -2.49547519618833e-09 -0.000362239031958689</v>
<v>2.58867379702293e-09 -2.4954834535601e-09 -0.000362239031958874</v>
<v>8.30165925586046e-10 4.33210372735061e-08 -0.000362220971518371</v>
<v>2.58983163625541e-09 -2.49556790583492e-09 -0.000362239031958727</v>
<v>2.58985243258123e-09 -2.49550781254715e-09 -0.000362239031958813</v>
<v>2.58978713430988e-09 -2.49544605389774e-09 -0.000362239031958789</v>
<v>2.59000578202808e-09 -2.49557051911452e-09 -0.000362239031958838</v>
<v>2.58894304800729e-09 -2.49568324236756e-09 -0.000362239031958827</v>
<v>-0.000690868429296582 0.000257381646113775 -0.000380810502736393</v>
<v>-0.000696305328460763 0.000260567122173008 -0.000379712404069869</v>
<v>-0.000693713521030981 0.000259953475115565 -0.000382167114168221</v>
<v>-0.000693713521150774 0.000259953475172575 -0.000382167114168286</v>
<v>-0.000693713521313866 0.000259953475093444 -0.000382167114168302</v>
<v>-0.000693723416027815 0.000259950803686506 -0.000382171035236276</v>
<v>-0.000694220803990064 0.000260244862050563 -0.00038250525770623</v>
<v>-0.000691656333272601 0.000263187244133218 -0.000386472236326854</v>
<v>-0.000693716893297308 0.000259943717606181 -0.000382163927147596</v>
<v>-0.000693713521093434 0.00025995347508998 -0.000382167114168129</v>
<v>-0.000693713520953486 0.000259953475168445 -0.000382167114168112</v>
<v>-0.000693713521307761 0.000259953475169322 -0.00038216711416818</v>
<v>-0.000693713522000566 0.000259953474843089 -0.000382167114168226</v>
<v>-0.000693713521747009 0.000259953475446674 -0.00038216711416811</v>
<v>-0.000693713521388094 0.000259953475178546 -0.000382167114168114</v>
<v>-0.000693713521549972 0.000259953475394542 -0.000382167114168138</v>
<v>-0.000693713521805047 0.00025995347525943 -0.000382167114168241</v>
<v>-0.000693713521476076 0.000259953475204538 -0.000382167114168228</v>
<v>-0.000693713521827344 0.00025995347470964 -0.000382167114168233</v>
<v>-0.000693713521616596 0.000259953474899802 -0.000382167114168274</v>
<v>-0.000693713520865143 0.000259953474944438 -0.000382167114168062</v>
<v>-0.00069371352112922 0.000259953475107027 -0.000382167114168083</v>
<v>-0.000693713520753369 0.000259953475080185 -0.000382167114168073</v>
<v>-0.000693713521224744 0.000259953475064834 -0.000382167114168191</v>
<v>-0.000693713521914496 0.000259953474914809 -0.00038216711416839</v>
<v>-0.000693713521565599 0.000259953475271802 -0.000382167114168306</v>
<v>-0.000693713521198151 0.000259953475457394 -0.000382167114168244</v>
<v>-0.000693713521082568 0.000259953475475085 -0.000382167114168302</v>
<v>-0.000693713521000802 0.000259953475493898 -0.00038216711416818</v>
<v>-0.000693713521257968 0.000259953475285578 -0.000382167114168453</v>
<v>-0.000693739477260813 0.000260261769826187 -0.000382015481661756</v>
<v>-0.000693713521432537 0.00025995347561395 -0.000382167114168124</v>
<v>-0.000693713521230838 0.000259953475493551 -0.000382167114168153</v>
<v>-0.000693713521535729 0.000259953475693193 -0.000382167114168189</v>
<v>-0.000693713521533303 0.000259953475579475 -0.000382167114168216</v>
<v>-0.000693712273871555 0.000259955267652285 -0.000382166331819905</v>
<v>0.000750850838387551 -0.000142765784577149 -0.000406847185833413</v>
<v>0.000747491011574816 -0.000140832586466924 -0.000398596087049424</v>
<v>0.000751674563568675 -0.000139713181472594 -0.000404483059494033</v>
<v>0.000751674563604344 -0.000139713181744715 -0.000404483059494096</v>
<v>0.00075167456391885 -0.000139713181611598 -0.000404483059494144</v>
<v>0.000751674563998491 -0.000139713181568952 -0.000404483059494048</v>
<v>0.000751537550570891 -0.000139617227046359 -0.000404557665206148</v>
<v>0.000752001078457299 -0.000137417145507131 -0.000406496801904261</v>
<v>0.000751698518175418 -0.000139710010853582 -0.000404492488255327</v>
<v>0.000751674563580805 -0.000139713181831934 -0.00040448305949421</v>
<v>0.000751674563783251 -0.000139713181676789 -0.000404483059493944</v>
<v>0.000751674563534627 -0.000139713181791737 -0.000404483059494376</v>
<v>0.000751674562256666 -0.000139713182168193 -0.000404483059493957</v>
<v>0.000751674563874182 -0.000139713181978185 -0.000404483059494122</v>
<v>0.00075167456363995 -0.000139713181823601 -0.00040448305949407</v>
<v>0.000751674563553977 -0.000139713182021771 -0.000404483059494195</v>
<v>0.000751674564385666 -0.000139713181782898 -0.000404483059494107</v>
<v>0.000751674563308525 -0.000139713181849599 -0.000404483059494091</v>
<v>0.000751674562275317 -0.000139713181737073 -0.000404483059493824</v>
<v>0.000751674563637427 -0.000139713181457116 -0.000404483059493924</v>
<v>0.000751674563185155 -0.000139713181542524 -0.000404483059493941</v>
<v>0.000751674563344085 -0.000139713181590054 -0.000404483059494108</v>
<v>0.000751674563366518 -0.000139713181523649 -0.000404483059493888</v>
<v>0.000751674563324161 -0.000139713181604663 -0.000404483059493938</v>
<v>0.000751674562117444 -0.000139713181732275 -0.000404483059493931</v>
<v>0.000751674563877701 -0.000139713181674695 -0.000404483059494139</v>
<v>0.000751674563815973 -0.000139713181663886 -0.000404483059494051</v>
<v>0.000751674563658327 -0.000139713181761169 -0.000404483059494115</v>
<v>0.000751674563678766 -0.000139713181626596 -0.000404483059494015</v>
<v>0.000751674563326545 -0.000139713181737486 -0.000404483059494123</v>
<v>0.000751740255437117 -0.000139129118270027 -0.000404114746153681</v>
<v>0.000751659642619709 -0.000139698500271669 -0.00040447520372664</v>
<v>0.000751674564128552 -0.000139713181874677 -0.000404483059494153</v>
<v>0.000751674564253131 -0.000139713182007918 -0.000404483059494281</v>
<v>0.000751674564338666 -0.000139713181870783 -0.000404483059494151</v>
<v>0.000751678562158497 -0.000139709519651257 -0.000404481027443546</v>
<v>-2.20451541188549e-06 -2.79926829824251e-06 -0.000429519253080184</v>
<v>-1.66644206328107e-06 -2.10867452072846e-06 -0.000421844106871209</v>
<v>2.08337767263617e-09 -9.06007424465727e-10 -0.000424278659303756</v>
<v>2.08322844716911e-09 -9.05991963742747e-10 -0.000424278659303742</v>
<v>2.08296551990235e-09 -9.0595464550397e-10 -0.000424278659303794</v>
<v>-2.57569737543636e-09 -5.9922715791097e-10 -0.000424280354283768</v>
<v>-5.34284199660284e-08 5.47089359370645e-08 -0.000424310746097792</v>
<v>1.46284134071328e-07 6.77701210345099e-07 -0.000424730897089441</v>
<v>3.34820767366219e-09 2.69120999107501e-10 -0.000424279286283902</v>
<v>2.0834456911669e-09 -9.05795361275572e-10 -0.000424278659303935</v>
<v>2.08307162084829e-09 -9.06004747903302e-10 -0.000424278659303966</v>
<v>2.08255299767243e-09 -9.05967513249034e-10 -0.000424278659304143</v>
<v>2.08310013682933e-09 -9.05719305110964e-10 -0.000424278659303963</v>
<v>2.08330876792215e-09 -9.05860101817533e-10 -0.000424278659303743</v>
<v>2.08330021390576e-09 -9.05841543739373e-10 -0.000424278659303849</v>
<v>2.08351187607164e-09 -9.05782678879621e-10 -0.000424278659303935</v>
<v>2.08284841222037e-09 -9.05953423591613e-10 -0.000424278659303855</v>
<v>2.08280422249463e-09 -9.05789721873662e-10 -0.000424278659303825</v>
<v>2.08350309227612e-09 -9.06166058856073e-10 -0.000424278659303995</v>
<v>2.08347287466372e-09 -9.06228955097836e-10 -0.00042427865930381</v>
<v>2.0836106140482e-09 -9.06186340169193e-10 -0.000424278659303812</v>
<v>2.08370336517595e-09 -9.06076169995343e-10 -0.000424278659303924</v>
<v>2.08323187470823e-09 -9.06258975589076e-10 -0.000424278659303901</v>
<v>2.08296756362344e-09 -9.06030964012775e-10 -0.000424278659303871</v>
<v>2.08305783733209e-09 -9.0634694194236e-10 -0.000424278659303924</v>
<v>2.08329741715549e-09 -9.06210919706405e-10 -0.000424278659303904</v>
<v>2.0831094341357e-09 -9.06250794155091e-10 -0.000424278659303671</v>
<v>2.08340525182734e-09 -9.06227966955976e-10 -0.000424278659303889</v>
<v>2.08274934804282e-09 -9.0633313193074e-10 -0.000424278659303817</v>
<v>2.08288596917003e-09 -9.06068523811796e-10 -0.00042427865930384</v>
<v>3.42158051336305e-08 1.92107959162691e-06 -0.000422713170524983</v>
<v>-5.96163409077887e-08 4.25898324507213e-08 -0.000424247789231921</v>
<v>2.08343865857469e-09 -9.0605928315668e-10 -0.000424278659304021</v>
<v>2.08365968359589e-09 -9.06213885182306e-10 -0.000424278659304121</v>
<v>2.08324831474024e-09 -9.06215992871329e-10 -0.000424278659303938</v>
<v>4.44869382968012e-08 1.24744780340916e-08 -0.000424259699001777</v>
<v>-0.000500562014347672 -0.000580443432207867 -0.000408565913654556</v>
<v>-0.00049520598095793 -0.000583892427358362 -0.000404496809161865</v>
<v>-0.000496828216512348 -0.000581108903159964 -0.00040448300301858</v>
<v>-0.000496828075708992 -0.00058110897083839 -0.000404483036792651</v>
<v>-0.000496828075472781 -0.000581108970971846 -0.000404483036792562</v>
<v>-0.000496828075776972 -0.000581108971265711 -0.000404483036792592</v>
<v>-0.000496828076514036 -0.000581108970980682 -0.000404483036792886</v>
<v>-0.000496832308907553 -0.000580711070742145 -0.000404689172357381</v>
<v>-0.000496828112773518 -0.000581108873312128 -0.00040448304337552</v>
<v>-0.000496828076048571 -0.000581108971009314 -0.000404483036792749</v>
<v>-0.000496828076479792 -0.000581108971129993 -0.000404483036792856</v>
<v>-0.000496828075791876 -0.000581108971132146 -0.000404483036792714</v>
<v>-0.000496828076381586 -0.000581108971172917 -0.000404483036792803</v>
<v>-0.000496828075985943 -0.000581108970952899 -0.000404483036792718</v>
<v>-0.000496828076087907 -0.00058110897106363 -0.000404483036792705</v>
<v>-0.000496828075920261 -0.000581108971011738 -0.000404483036792634</v>
<v>-0.000496828076049255 -0.000581108971120064 -0.000404483036792801</v>
<v>-0.000496828075698011 -0.000581108971110821 -0.000404483036792581</v>
<v>-0.000496828076794562 -0.000581108971100142 -0.000404483036792954</v>
<v>-0.000496828076709105 -0.000581108970990759 -0.000404483036792885</v>
<v>-0.000496828076389803 -0.000581108970983356 -0.000404483036792832</v>
<v>-0.000496828076342431 -0.000581108970979313 -0.000404483036792769</v>
<v>-0.000496828076731536 -0.000581108971038278 -0.000404483036792927</v>
<v>-0.000496828075844174 -0.000581108970970976 -0.000404483036792665</v>
<v>-0.00049682807650514 -0.000581108971046573 -0.000404483036792875</v>
<v>-0.000496828076032056 -0.000581108970793182 -0.000404483036792788</v>
<v>-0.000496828075934893 -0.000581108970944635 -0.000404483036792771</v>
<v>-0.000496828075710006 -0.00058110897086512 -0.000404483036792733</v>
<v>-0.000496828075737016 -0.00058110897107463 -0.000404483036792695</v>
<v>-0.000496828074872115 -0.000581108970931961 -0.000404483036792591</v>
<v>-0.000495521922957154 -0.000577532967457328 -0.000400374476756148</v>
<v>-0.00049717326308714 -0.000580905197251952 -0.000404275033302213</v>
<v>-0.000496828076257658 -0.000581108970213795 -0.000404483036792528</v>
<v>-0.000496828076541722 -0.000581108970211797 -0.00040448303679262</v>
<v>-0.000496828076566522 -0.000581108970164557 -0.000404483036792721</v>
<v>-0.000496821599983671 -0.000581120446368846 -0.00040448309165457</v>
<v>0.00187913366569178 0.000193320447362514 -0.000405071956901692</v>
<v>0.00187645706665903 0.000193324527769844 -0.000409977789067243</v>
<v>0.00187686217867378 0.000193201053759751 -0.000410206657332414</v>
<v>0.00187686217918204 0.000193201053714454 -0.000410206657332426</v>
<v>0.00187686217843939 0.000193201053649693 -0.000410206657332406</v>
<v>0.00187682170251753 0.000193114367160305 -0.00041024485014077</v>
<v>0.00187404684366569 0.000195330840050631 -0.000413685566790544</v>
<v>0.00187812725793572 0.00019298003227765 -0.000410986503818978</v>
<v>0.00187686217867447 0.000193201053896349 -0.000410206657332695</v>
<v>0.00187686217881916 0.000193201053882975 -0.000410206657332722</v>
<v>0.00187686217814649 0.000193201053881873 -0.000410206657332656</v>
<v>0.00187686217917926 0.000193201053975433 -0.000410206657333068</v>
<v>0.00187686217838449 0.000193201054321392 -0.000410206657332728</v>
<v>0.00187686396966233 0.000193277975520221 -0.000410238333100767</v>
<v>0.00187686217794854 0.000193201054306963 -0.000410206657332638</v>
<v>0.00187686217831338 0.000193201054358347 -0.000410206657332511</v>
<v>0.00187686217836526 0.000193201054536793 -0.00041020665733264</v>
<v>0.00187686217781325 0.00019320105448708 -0.000410206657332694</v>
<v>0.0018768621782298 0.000193201054159602 -0.000410206657332846</v>
<v>0.00187686217795747 0.000193201054107277 -0.00041020665733269</v>
<v>0.00187686217808108 0.000193201054117777 -0.000410206657332756</v>
<v>0.00187686217843376 0.000193201054187817 -0.000410206657332746</v>
<v>0.00187686217863415 0.000193201053996535 -0.000410206657332776</v>
<v>0.00187686217796058 0.000193201054180568 -0.000410206657332901</v>
<v>0.00187686217815086 0.000193201054260062 -0.000410206657332666</v>
<v>0.0018768621779506 0.000193201054323229 -0.000410206657332544</v>
<v>0.00187686217809936 0.000193201054235168 -0.000410206657332644</v>
<v>0.00187686217828835 0.000193201054020243 -0.000410206657332611</v>
<v>0.00187686217847557 0.000193201053984927 -0.000410206657332703</v>
<v>0.00187686217817426 0.000193201054111746 -0.000410206657332629</v>
<v>0.00187684646974875 0.000193241656618456 -0.000410189690895347</v>
<v>0.00187686217822741 0.000193201053969825 -0.000410206657332752</v>
<v>0.00187686217838644 0.000193201053965067 -0.000410206657332747</v>
<v>0.00187686217839891 0.000193201054035176 -0.000410206657332764</v>
<v>0.00187686217856471 0.00019320105403024 -0.000410206657332836</v>
<v>0.00187687290206155 0.000193226231083328 -0.000410196000252779</v>
<v>0.0002529905712082 0.00183534574066796 -0.000429449562924268</v>
<v>0.000256972897261307 0.00184683354731931 -0.000407958317121607</v>
<v>0.000257828604664778 0.00184676286021956 -0.000408554243019713</v>
<v>0.000257828604465105 0.00184676286036106 -0.000408554243019776</v>
<v>0.000257828604633417 0.00184676286013445 -0.000408554243019649</v>
<v>0.000257738250888303 0.00184671538232251 -0.000408602087763666</v>
<v>0.00025697892947954 0.00184748798248641 -0.00040934225557403</v>
<v>0.000259190814315661 0.00184774882597271 -0.000409966698351419</v>
<v>0.000257828604463617 0.00184676286063593 -0.000408554243019643</v>
<v>0.000257828604530036 0.0018467628607384 -0.000408554243019529</v>
<v>0.000257828604407529 0.00184676286056563 -0.000408554243019576</v>
<v>0.000257828604674731 0.00184676286102059 -0.000408554243019446</v>
<v>0.000257828604846633 0.00184676286014729 -0.000408554243019725</v>
<v>0.000257828605162703 0.00184676286016006 -0.000408554243019501</v>
<v>0.000257828605045764 0.00184676286028272 -0.000408554243019477</v>
<v>0.000257828605179589 0.00184676286038919 -0.000408554243019551</v>
<v>0.000257828605307761 0.00184676286048714 -0.000408554243019309</v>
<v>0.000257828605577627 0.001846762860262 -0.000408554243019449</v>
<v>0.000257828605007962 0.00184676286017771 -0.000408554243019726</v>
<v>0.000257828605255221 0.0018467628602942 -0.000408554243019502</v>
<v>0.000257828604635525 0.00184676286019736 -0.000408554243019642</v>
<v>0.000257828604933785 0.00184676286022777 -0.000408554243019609</v>
<v>0.000257828604164223 0.00184676286035886 -0.000408554243019622</v>
<v>0.000257828605273414 0.00184676286017738 -0.000408554243019423</v>
<v>0.000257828604926735 0.00184676286047447 -0.000408554243019777</v>
<v>0.000257828605238258 0.00184676286053161 -0.000408554243019567</v>
<v>0.000257828604917167 0.00184676286057989 -0.000408554243019627</v>
<v>0.000257828604654389 0.00184676286073863 -0.0004085542430196</v>
<v>0.000257828604476524 0.00184676286068638 -0.000408554243019691</v>
<v>0.00025782860509935 0.00184676286057987 -0.000408554243019579</v>
<v>0.000257737953893528 0.00184706574379945 -0.000408400271525407</v>
<v>0.000257828604613834 0.00184676286049615 -0.000408554243019526</v>
<v>0.00025782860439541 0.00184676286047152 -0.000408554243019531</v>
<v>0.000257828604670012 0.00184676286057919 -0.00040855424301957</v>
<v>0.000257828604637204 0.00184676286052542 -0.000408554243019446</v>
<v>0.000257865638111735 0.00184681539303309 -0.000408526875301045</v>
<v>-0.000793889633030253 -0.0016821200785256 -0.000408828281652429</v>
<v>-0.000771625912833942 -0.00172214765616586 -0.000409863189154309</v>
<v>-0.00077111115525286 -0.00172200881975843 -0.000410206658496207</v>
<v>-0.00077111115551197 -0.00172200881992456 -0.00041020665849616</v>
<v>-0.000771111154985075 -0.00172200881962855 -0.000410206658496156</v>
<v>-0.000771367252220934 -0.00172208095657694 -0.000410348664917855</v>
<v>-0.000771524347336392 -0.00172142948085608 -0.000410638387290184</v>
<v>-0.000770735520043224 -0.00172163258123684 -0.000410548939658765</v>
<v>-0.000771111154997512 -0.00172200882005179 -0.000410206658496205</v>
<v>-0.000771111155353185 -0.00172200881996934 -0.000410206658496046</v>
<v>-0.000771111155168532 -0.0017220088199123 -0.000410206658496217</v>
<v>-0.000771111156185944 -0.00172200881983031 -0.000410206658496075</v>
<v>-0.000771111155226399 -0.00172200881976556 -0.000410206658496169</v>
<v>-0.000771111155003069 -0.00172200881985866 -0.000410206658496126</v>
<v>-0.000771111155258249 -0.0017220088197007 -0.000410206658496161</v>
<v>-0.000771111155567161 -0.00172200881977064 -0.000410206658496084</v>
<v>-0.000771111156385712 -0.00172200881982588 -0.000410206658496253</v>
<v>-0.000771111155925125 -0.00172200881970402 -0.000410206658496349</v>
<v>-0.000771111155228542 -0.00172200881969343 -0.000410206658496076</v>
<v>-0.000771111154979572 -0.00172200881976016 -0.000410206658496076</v>
<v>-0.000771111155073987 -0.00172200881967337 -0.000410206658496088</v>
<v>-0.000771111155231612 -0.00172200881972251 -0.000410206658495967</v>
<v>-0.000771111155600989 -0.00172200881951448 -0.000410206658496183</v>
<v>-0.000771111155388998 -0.00172200881956397 -0.000410206658496109</v>
<v>-0.000771111155284701 -0.00172200882032997 -0.000410206658496033</v>
<v>-0.000771111154813778 -0.00172200882038793 -0.000410206658495967</v>
<v>-0.000771111155144486 -0.00172200882029134 -0.000410206658496079</v>
<v>-0.000771111155345613 -0.00172200882033936 -0.000410206658496049</v>
<v>-0.000771111155316759 -0.00172200882028405 -0.000410206658496149</v>
<v>-0.000771111155609225 -0.0017220088202981 -0.000410206658496211</v>
<v>-0.000771407306540553 -0.00172135865675812 -0.000409772133380408</v>
<v>-0.000771111155137472 -0.00172200881989191 -0.000410206658496016</v>
<v>-0.00077111115535733 -0.00172200881987244 -0.000410206658495991</v>
<v>-0.000771111155293013 -0.00172200881992251 -0.000410206658495941</v>
<v>-0.000771111155136941 -0.00172200881968052 -0.000410206658496081</v>
<v>-0.000770919930781308 -0.00172182336690668 -0.00041006438953763</v>
<v>-0.0002299143070051 0.000707689380741114 -0.000341056913700969</v>
<v>-0.000255486143400229 0.000720288761043417 -0.000403902712468749</v>
<v>-0.000254844258387484 0.000720826302682836 -0.000404483035905828</v>
<v>-0.000254844257969056 0.000720826302775686 -0.000404483035905821</v>
<v>-0.000254844258296659 0.000720826302782295 -0.000404483035905782</v>
<v>-0.000254975367797024 0.000720826593066188 -0.000404542886740318</v>
<v>-0.000254974947727403 0.000721004636142323 -0.000404584430287861</v>
<v>-0.000254650114124018 0.000721245044171863 -0.000404748690533668</v>
<v>-0.000254844258303538 0.000720826302972189 -0.000404483035905899</v>
<v>-0.000254844258277249 0.00072082630275659 -0.00040448303590582</v>
<v>-0.000254844258324791 0.000720826302840337 -0.00040448303590583</v>
<v>-0.000254844257530959 0.000720826302722605 -0.000404483035905918</v>
<v>-0.000254844258157682 0.000720826302823761 -0.000404483035905872</v>
<v>-0.00025484425837847 0.000720826302951914 -0.000404483035905891</v>
<v>-0.000254844258381841 0.0007208263029608 -0.000404483035905867</v>
<v>-0.000254844258254069 0.00072082630287526 -0.000404483035905815</v>
<v>-0.000254844257734488 0.000720826302678434 -0.000404483035905816</v>
<v>-0.000254844257827547 0.000720826302941601 -0.000404483035906052</v>
<v>-0.000254844258350152 0.000720826303036588 -0.000404483035905876</v>
<v>-0.000254844258453536 0.000720826303059978 -0.000404483035905841</v>
<v>-0.000254844258423902 0.000720826303071233 -0.000404483035905811</v>
<v>-0.000254844258664659 0.000720826303023784 -0.000404483035905759</v>
<v>-0.000254844257958427 0.00072082630291698 -0.000404483035905815</v>
<v>-0.000254844258060012 0.000720826303036907 -0.000404483035905959</v>
<v>-0.000254844258335662 0.000720826303540449 -0.000404483035905934</v>
<v>-0.000254844258682467 0.00072082630346359 -0.000404483035905801</v>
<v>-0.000254844258509745 0.000720826303449571 -0.000404483035905878</v>
<v>-0.000254844258742738 0.000720826303437081 -0.00040448303590576</v>
<v>-0.000254844258127631 0.00072082630348791 -0.000404483035905876</v>
<v>-0.00025484425830046 0.000720826303435966 -0.000404483035906073</v>
<v>-0.000255489622782688 0.000722704331702346 -0.00040287804962283</v>
<v>-0.000254844258598938 0.000720826302934928 -0.000404483035905688</v>
<v>-0.000254844258501715 0.000720826302795829 -0.000404483035905743</v>
<v>-0.000254844258404126 0.000720826302926379 -0.000404483035905702</v>
<v>-0.000254844258303237 0.000720826302995213 -0.000404483035905782</v>
<v>-0.000254649467303222 0.000720891869765239 -0.000404376698670752</v>
<v>0.000125213068310658 -0.000737430129252845 -0.000378047952098121</v>
<v>0.000121660724261254 -0.000730996708484446 -0.000382060667790671</v>
<v>0.000121732958407085 -0.000730752034072273 -0.000382167131158953</v>
<v>0.000121732958709926 -0.000730752034012277 -0.000382167131158854</v>
<v>0.000121732959196225 -0.00073075203406977 -0.000382167131158929</v>
<v>0.000121534937668891 -0.000730711404410824 -0.000382262884797898</v>
<v>0.000121707310312277 -0.000730704222975641 -0.000382188584077511</v>
<v>0.000121775851912751 -0.000730636986613987 -0.000382221643429238</v>
<v>0.000121732958356889 -0.00073075203380066 -0.000382167131158889</v>
<v>0.000121732958459373 -0.000730752033844825 -0.000382167131158777</v>
<v>0.000121732958952499 -0.000730752033897894 -0.000382167131158727</v>
<v>0.000121732958374515 -0.000730752034063212 -0.000382167131158399</v>
<v>0.000121732958220205 -0.000730752034044883 -0.0003821671311588</v>
<v>0.000121732957847561 -0.000730752034023625 -0.000382167131158744</v>
<v>0.000121732958039556 -0.000730752033961931 -0.000382167131158756</v>
<v>0.000121732957933391 -0.000730752034030131 -0.00038216713115879</v>
<v>0.000121732958678155 -0.000730752034060566 -0.000382167131158806</v>
<v>0.000121732957937829 -0.000730752034092655 -0.000382167131158391</v>
<v>0.000121732958217438 -0.000730752034011873 -0.00038216713115885</v>
<v>0.000121732958163457 -0.000730752033935979 -0.000382167131158794</v>
<v>0.000121732958369923 -0.000730752033982324 -0.000382167131158823</v>
<v>0.000121732958424673 -0.000730752033924208 -0.000382167131158864</v>
<v>0.000121732958780855 -0.000730752034010708 -0.000382167131158752</v>
<v>0.000121732958291204 -0.000730752034183417 -0.000382167131158474</v>
<v>0.000121732957948837 -0.000730752034274706 -0.000382167131158813</v>
<v>0.00012173295780131 -0.000730752034109563 -0.000382167131158701</v>
<v>0.000121732957946643 -0.00073075203428326 -0.00038216713115872</v>
<v>0.000121732957745347 -0.000730752034155572 -0.000382167131158687</v>
<v>0.000121732958712518 -0.000730752034335565 -0.000382167131158793</v>
<v>0.000121734734488193 -0.00073073571610821 -0.000382160988993029</v>
<v>0.000119313454452027 -0.000727269403947378 -0.000377682479944805</v>
<v>0.00012173533760961 -0.000730752914822492 -0.000382168064753953</v>
<v>0.000121732956540899 -0.000730752033315195 -0.000382167131158498</v>
<v>0.000121732956433579 -0.000730752033290288 -0.00038216713115841</v>
<v>0.000121732956918878 -0.000730752033393629 -0.00038216713115846</v>
<v>0.000122160150294337 -0.000730843494260023 -0.000381961766496568</v>
<v>-0.0017291336738384 -0.000698589028814391 -0.000401145191666111</v>
<v>-0.00172836988396252 -0.000700069127434588 -0.000408506839219405</v>
<v>-0.00172826397117154 -0.000700095381897414 -0.000408554245115531</v>
<v>-0.00172826397149328 -0.000700095381929611 -0.000408554245115442</v>
<v>-0.00172826397117755 -0.000700095381756731 -0.000408554245115496</v>
<v>-0.00172824386378835 -0.000700396735521824 -0.000408634624035587</v>
<v>-0.00173093284684122 -0.000695472738931674 -0.000415296794941765</v>
<v>-0.0017280130477053 -0.00070026346991649 -0.000408634623280628</v>
<v>-0.00172826397199039 -0.00070009538087429 -0.000408554245115283</v>
<v>-0.00172826397268313 -0.000700095380849475 -0.000408554245115417</v>
<v>-0.00172826397215149 -0.00070009538076839 -0.000408554245115262</v>
<v>-0.00172829285804595 -0.000700084819041783 -0.000408566148382493</v>
<v>-0.00172826397185293 -0.000700095381178583 -0.000408554245115318</v>
<v>-0.00172825867598948 -0.000700065084567185 -0.000408566148212434</v>
<v>-0.00172826397168346 -0.000700095381152596 -0.000408554245115311</v>
<v>-0.00172826397191961 -0.000700095381117497 -0.000408554245115246</v>
<v>-0.00172826397211169 -0.000700095381158339 -0.000408554245115327</v>
<v>-0.00172826397170571 -0.000700095381063829 -0.000408554245115507</v>
<v>-0.00172826397184036 -0.000700095381140732 -0.000408554245115413</v>
<v>-0.00172826397142272 -0.000700095381034462 -0.000408554245115414</v>
<v>-0.00172826397142248 -0.00070009538130122 -0.000408554245115416</v>
<v>-0.00172826397175825 -0.000700095381401053 -0.000408554245115436</v>
<v>-0.00172826397212029 -0.00070009538118955 -0.000408554245115325</v>
<v>-0.00172826397167816 -0.000700095381311601 -0.000408554245115612</v>
<v>-0.00172826397157628 -0.000700095381138921 -0.000408554245115372</v>
<v>-0.0017282639714308 -0.000700095381139585 -0.000408554245115315</v>
<v>-0.0017282639714717 -0.000700095381161054 -0.000408554245115323</v>
<v>-0.00172826397177173 -0.000700095381163616 -0.000408554245115312</v>
<v>-0.00172826397185296 -0.000700095381088814 -0.000408554245115229</v>
<v>-0.00172826397196238 -0.000700095381052811 -0.000408554245115629</v>
<v>-0.00172826907947612 -0.000700086533926303 -0.000408550514860232</v>
<v>-0.00172826397154618 -0.000700095381328968 -0.00040855424511544</v>
<v>-0.00172826397170326 -0.000700095381253947 -0.00040855424511544</v>
<v>-0.00172826397165127 -0.000700095381334622 -0.000408554245115375</v>
<v>-0.00172826397218436 -0.000700095381168094 -0.000408554245115462</v>
<v>-0.00172823375286346 -0.000699990529780409 -0.000408506838807869</v>
<v>-0.00109619187256348 0.00152091807207807 -0.00042391772835559</v>
<v>-0.00110581841437035 0.00152881368851335 -0.000410177050958365</v>
<v>-0.00110574841778555 0.00152880925432933 -0.000410206640925127</v>
<v>-0.00110574841783051 0.00152880925427062 -0.000410206640925058</v>
<v>-0.00110574841785943 0.00152880925434777 -0.00041020664092511</v>
<v>-0.00110639482530034 0.00152797350143902 -0.000410935104561394</v>
<v>-0.00110639057254507 0.00153144478307096 -0.000412618478212183</v>
<v>-0.00110560276447469 0.00152883107025037 -0.000410276077534668</v>
<v>-0.00110574841760499 0.0015288092541078 -0.000410206640925002</v>
<v>-0.00110574841737877 0.0015288092540406 -0.000410206640925026</v>
<v>-0.00110574841738444 0.00152880925415733 -0.00041020664092506</v>
<v>-0.00110576627118275 0.00152881940837341 -0.000410214379224606</v>
<v>-0.00110574841767381 0.00152880925432814 -0.000410206640925275</v>
<v>-0.00110574841775534 0.00152880925428115 -0.000410206640925229</v>
<v>-0.00110574841760266 0.00152880925430669 -0.000410206640925262</v>
<v>-0.00110574841836738 0.00152880925439732 -0.000410206640925255</v>
<v>-0.00110574841756587 0.00152880925471631 -0.000410206640925206</v>
<v>-0.00110574841622163 0.00152880925486687 -0.000410206640924821</v>
<v>-0.0011057484177182 0.00152880925454404 -0.000410206640925057</v>
<v>-0.00110574841771654 0.001528809254493 -0.000410206640925037</v>
<v>-0.00110574841781244 0.00152880925455936 -0.000410206640925011</v>
<v>-0.00110574841744109 0.00152880925466791 -0.000410206640924943</v>
<v>-0.00110574841735795 0.00152880925475035 -0.000410206640925119</v>
<v>-0.0011057484165421 0.00152880925491022 -0.000410206640924609</v>
<v>-0.00110574841795496 0.00152880925448136 -0.000410206640925049</v>
<v>-0.0011057484179734 0.00152880925440144 -0.000410206640925059</v>
<v>-0.00110574841785426 0.00152880925449932 -0.000410206640924944</v>
<v>-0.00110574841759761 0.00152880925441032 -0.000410206640924982</v>
<v>-0.00110574841757272 0.00152880925456988 -0.000410206640924887</v>
<v>-0.00110574841637429 0.00152880925487153 -0.000410206640924581</v>
<v>-0.0011058186729072 0.00152890023771264 -0.000410158031033212</v>
<v>-0.00110574841835321 0.00152880925469528 -0.000410206640925192</v>
<v>-0.00110574841827144 0.00152880925476483 -0.00041020664092513</v>
<v>-0.00110574841852653 0.00152880925460468 -0.000410206640925127</v>
<v>-0.00110574841778655 0.00152880925478661 -0.000410206640925159</v>
<v>-0.00110560227061696 0.00152923965333174 -0.000409951994419018</v>
<v>0.00147904444774588 -0.00112301734764402 -0.000489979076474825</v>
<v>0.00147024038305655 -0.0011467029685347 -0.000408458556860315</v>
<v>0.0014704308033561 -0.0011466701758373 -0.000408554242572078</v>
<v>0.00147043080341472 -0.0011466701758271 -0.000408554242572088</v>
<v>0.00147043080348274 -0.00114667017589093 -0.000408554242572164</v>
<v>0.00146972143397675 -0.00114693306695801 -0.000409079038079533</v>
<v>0.00147011204521093 -0.00114583479300041 -0.000409152233802078</v>
<v>0.0014706076515133 -0.00114653478343887 -0.00040867079930666</v>
<v>0.00147043080311272 -0.00114667017577457 -0.00040855424257198</v>
<v>0.0014704308029929 -0.00114667017574502 -0.00040855424257202</v>
<v>0.00147043080324239 -0.00114667017583163 -0.000408554242571938</v>
<v>0.00147043080458015 -0.00114667017535108 -0.000408554242572133</v>
<v>0.00147043080333995 -0.00114667017565587 -0.00040855424257216</v>
<v>0.00147043080319012 -0.00114667017566418 -0.000408554242572039</v>
<v>0.00147043080353592 -0.00114667017570523 -0.000408554242572077</v>
<v>0.00147043080360915 -0.00114667017586057 -0.000408554242572083</v>
<v>0.00147043080447258 -0.0011466701755726 -0.000408554242572281</v>
<v>0.00147043080454359 -0.00114667017548054 -0.000408554242572025</v>
<v>0.00147043080332093 -0.00114667017605307 -0.000408554242572027</v>
<v>0.00147043080310779 -0.00114667017613429 -0.00040855424257196</v>
<v>0.00147043080330619 -0.00114667017600974 -0.000408554242572035</v>
<v>0.00147043080312704 -0.00114667017610711 -0.00040855424257205</v>
<v>0.00147043080364875 -0.00114667017590706 -0.000408554242572008</v>
<v>0.00147043080411641 -0.00114667017577719 -0.000408554242571933</v>
<v>0.00147043080356076 -0.00114667017629084 -0.000408554242572083</v>
<v>0.0014704308031901 -0.00114667017631322 -0.000408554242571963</v>
<v>0.00147043080338017 -0.00114667017627638 -0.00040855424257199</v>
<v>0.00147043080363397 -0.00114667017623373 -0.000408554242572047</v>
<v>0.00147043080393315 -0.00114667017608466 -0.000408554242572058</v>
<v>0.00147043080479747 -0.00114667017606762 -0.000408554242571771</v>
<v>0.00147010439686868 -0.00114624354869001 -0.000408261395751765</v>
<v>0.00147043080371029 -0.00114667017592943 -0.000408554242572134</v>
<v>0.00147043080380199 -0.00114667017595346 -0.00040855424257212</v>
<v>0.00147043080355236 -0.00114667017615933 -0.000408554242572022</v>
<v>0.00147043080385526 -0.00114667017603543 -0.000408554242572158</v>
<v>0.0014707758373263 -0.00114621395521741 -0.000408183456651507</v>
<v>0.000570664745768612 0.00047084331741809 -0.000383174318735965</v>
<v>0.000569994662239823 0.000465275410031247 -0.000374065092515081</v>
<v>0.000571907528224558 0.000470773929648923 -0.00038213477580105</v>
<v>0.000571975619387982 0.000470799017610999 -0.000382167129545138</v>
<v>0.000571975619446599 0.000470799017561826 -0.000382167129545203</v>
<v>0.000571975619469632 0.000470799017359537 -0.000382167129545204</v>
<v>0.000571975618559151 0.000470799017641133 -0.00038216712954475</v>
<v>0.000571874422726591 0.000471229904336124 -0.000382398411013963</v>
<v>0.000572010822087909 0.000470841708938569 -0.000382190579183664</v>
<v>0.000571975619613364 0.000470799017569278 -0.000382167129545189</v>
<v>0.00057197561998927 0.000470799017538697 -0.000382167129545152</v>
<v>0.000571975619535513 0.000470799017500094 -0.000382167129545063</v>
<v>0.000571975618671283 0.000470799017423085 -0.000382167129544476</v>
<v>0.000571975619493761 0.000470799017297359 -0.000382167129545131</v>
<v>0.000571975619664459 0.000470799017472741 -0.000382167129545067</v>
<v>0.000571975619253961 0.000470799017335075 -0.000382167129545002</v>
<v>0.000571975619792482 0.000470799017372298 -0.000382167129545075</v>
<v>0.000571975619420938 0.000470799017055372 -0.000382167129544852</v>
<v>0.000571975618934628 0.000470799017912915 -0.000382167129544784</v>
<v>0.000571975620125881 0.000470799017846063 -0.000382167129545233</v>
<v>0.000571975619893736 0.000470799017823067 -0.000382167129545168</v>
<v>0.000571975620066289 0.000470799017734556 -0.000382167129545153</v>
<v>0.000571975620188669 0.000470799017853508 -0.000382167129545107</v>
<v>0.000571975619594433 0.000470799017585796 -0.000382167129545184</v>
<v>0.000571975618647302 0.000470799018228663 -0.000382167129544732</v>
<v>0.000571975619411511 0.000470799018045415 -0.000382167129545127</v>
<v>0.000571975619574979 0.000470799018141985 -0.000382167129545184</v>
<v>0.000571975619294436 0.000470799018067683 -0.000382167129545126</v>
<v>0.000571975619201707 0.000470799018155567 -0.000382167129545259</v>
<v>0.00057197561852237 0.000470799017787359 -0.00038216712954524</v>
<v>0.000573257958157436 0.000472191540475508 -0.00038053224380654</v>
<v>0.000571424483411947 0.00047124890902939 -0.00038171046013042</v>
<v>0.000571975618291587 0.000470799018339685 -0.000382167129544916</v>
<v>0.000571975618305798 0.000470799018394974 -0.00038216712954486</v>
<v>0.000571975618618881 0.000470799018594814 -0.000382167129545049</v>
<v>0.0005719754769824 0.000470799050253046 -0.000382167167974437</v>
  </varray>
 </calculation>
</modeling>
